REMARK  Name = 5284360
REMARK  13 active torsions:
REMARK  status: ('A' for Active; 'I' for Inactive)
REMARK    1  A    between atoms: S_1  and  O_7
REMARK    2  A    between atoms: S_1  and  C_34
REMARK    3  A    between atoms: O_2  and  C_18
REMARK    4  A    between atoms: O_2  and  C_25
REMARK    5  A    between atoms: O_3  and  C_21
REMARK    6  A    between atoms: O_3  and  C_22
REMARK    7  A    between atoms: N_10  and  C_31
REMARK    8  A    between atoms: N_10  and  C_32
REMARK    9  A    between atoms: N_11  and  C_28
REMARK   10  A    between atoms: C_14  and  C_15
REMARK   11  A    between atoms: C_15  and  C_21
REMARK   12  A    between atoms: C_22  and  C_24
REMARK   13  A    between atoms: C_23  and  C_25
REMARK                            x       y       z     vdW  Elec       q    Type
REMARK                         _______ _______ _______ _____ _____    ______ ____
ROOT
ATOM      1  S   UNL     1       0.567   0.501  -0.020  0.00  0.00    +0.000 S 
ATOM      2  O   UNL     1       0.558   1.747  -0.860  0.00  0.00    +0.000 OA
ATOM      3  O   UNL     1       1.055   0.838   1.361  0.00  0.00    +0.000 OA
ATOM      4  C   UNL     1      -1.082  -0.160   0.070  0.00  0.00    +0.000 C 
ENDROOT
BRANCH   1   5
ATOM      5  O   UNL     1       1.593  -0.631  -0.721  0.00  0.00    +0.000 OA
ATOM      6  H   UNL     1       2.491  -0.268  -0.768  0.00  0.00    +0.000 HD
ENDBRANCH   1   5
TORSDOF 1
REMARK  Name = 5284360
REMARK  13 active torsions:
REMARK  status: ('A' for Active; 'I' for Inactive)
REMARK    1  A    between atoms: S_1  and  O_7
REMARK    2  A    between atoms: S_1  and  C_34
REMARK    3  A    between atoms: O_2  and  C_18
REMARK    4  A    between atoms: O_2  and  C_25
REMARK    5  A    between atoms: O_3  and  C_21
REMARK    6  A    between atoms: O_3  and  C_22
REMARK    7  A    between atoms: N_10  and  C_31
REMARK    8  A    between atoms: N_10  and  C_32
REMARK    9  A    between atoms: N_11  and  C_28
REMARK   10  A    between atoms: C_14  and  C_15
REMARK   11  A    between atoms: C_15  and  C_21
REMARK   12  A    between atoms: C_22  and  C_24
REMARK   13  A    between atoms: C_23  and  C_25
REMARK                            x       y       z     vdW  Elec       q    Type
REMARK                         _______ _______ _______ _____ _____    ______ ____
ROOT
ATOM      1  O   UNL     1       1.651  -0.905  -0.810  0.00  0.00    +0.000 OA
ENDROOT
BRANCH   1   5
ATOM      2  C   UNL     1      -2.256  -1.402  -2.322  0.00  0.00    +0.000 A 
ATOM      3  C   UNL     1      -1.725  -0.110  -2.186  0.00  0.00    +0.000 A 
ATOM      4  C   UNL     1      -1.488  -2.506  -1.919  0.00  0.00    +0.000 A 
ATOM      5  C   UNL     1       0.350  -1.037  -1.319  0.00  0.00    +0.000 A 
ATOM      6  C   UNL     1      -0.432   0.073  -1.687  0.00  0.00    +0.000 A 
ATOM      7  C   UNL     1      -0.196  -2.322  -1.420  0.00  0.00    +0.000 A 
BRANCH   2   8
ATOM      8  C   UNL     1      -3.658  -1.596  -2.834  0.00  0.00    +0.000 C 
BRANCH   8  10
ATOM      9  O   UNL     1      -4.625  -2.068  -0.701  0.00  0.00    +0.000 OA
ATOM     10  C   UNL     1      -4.652  -1.355  -1.742  0.00  0.00    +0.000 C 
BRANCH  10  11
ATOM     11  O   UNL     1      -5.615  -0.347  -1.894  0.00  0.00    +0.000 OA
BRANCH  11  12
ATOM     12  C   UNL     1      -6.563  -0.016  -0.880  0.00  0.00    +0.000 C 
BRANCH  12  15
ATOM     13  O   UNL     1      -4.849   1.398  -0.007  0.00  0.00    +0.000 OA
ATOM     14  N   UNL     1      -6.501   0.835   1.553  0.00  0.00    +0.000 N 
ATOM     15  C   UNL     1      -5.908   0.755   0.238  0.00  0.00    +0.000 C 
ATOM     16  C   UNL     1      -5.854   1.663   2.577  0.00  0.00    +0.000 C 
ATOM     17  C   UNL     1      -7.739   0.115   1.866  0.00  0.00    +0.000 C 
ENDBRANCH  12  15
ENDBRANCH  11  12
ENDBRANCH  10  11
ENDBRANCH   8  10
ENDBRANCH   2   8
ENDBRANCH   1   5
BRANCH   1  19
ATOM     18  O   UNL     1       2.347   0.858  -2.135  0.00  0.00    +0.000 OA
ATOM     19  C   UNL     1       2.554   0.117  -1.135  0.00  0.00    +0.000 C 
BRANCH  19  20
ATOM     20  C   UNL     1       3.791   0.279  -0.339  0.00  0.00    +0.000 A 
ATOM     21  C   UNL     1       4.755   1.240  -0.695  0.00  0.00    +0.000 A 
ATOM     22  C   UNL     1       4.014  -0.523   0.794  0.00  0.00    +0.000 A 
ATOM     23  C   UNL     1       6.168   0.536   1.155  0.00  0.00    +0.000 A 
ATOM     24  C   UNL     1       5.929   1.375   0.052  0.00  0.00    +0.000 A 
ATOM     25  C   UNL     1       5.188  -0.385   1.540  0.00  0.00    +0.000 A 
BRANCH  23  26
ATOM     26  N   UNL     1       7.348   0.676   1.962  0.00  0.00    +0.000 N 
ATOM     27  N   UNL     1       8.923   0.733   0.160  0.00  0.00    +0.000 N 
ATOM     28  N   UNL     1       9.607   1.047   2.508  0.00  0.00    +0.000 N 
ATOM     29  C   UNL     1       8.573   0.836   1.546  0.00  0.00    +0.000 C 
ATOM     30  H   UNL     1       7.216   0.648   2.938  0.00  0.00    +0.000 HD
ATOM     31  H   UNL     1       8.222   0.587  -0.515  0.00  0.00    +0.000 HD
ATOM     32  H   UNL     1       9.865   0.807  -0.117  0.00  0.00    +0.000 HD
ATOM     33  H   UNL     1       9.382   1.120   3.464  0.00  0.00    +0.000 HD
ATOM     34  H   UNL     1      10.544   1.120   2.216  0.00  0.00    +0.000 HD
ENDBRANCH  23  26
ENDBRANCH  19  20
ENDBRANCH   1  19
TORSDOF 9
