REMARK  Name = 10206
REMARK  6 active torsions:
REMARK  status: ('A' for Active; 'I' for Inactive)
REMARK    1  A    between atoms: O_4  and  C_32
REMARK    2  A    between atoms: O_4  and  C_44
REMARK    3  A    between atoms: O_6  and  C_43
REMARK    4  A    between atoms: O_6  and  C_45
REMARK    5  A    between atoms: N_7  and  C_25
REMARK    6  A    between atoms: N_8  and  C_30
REMARK                            x       y       z     vdW  Elec       q    Type
REMARK                         _______ _______ _______ _____ _____    ______ ____
ROOT
ATOM      1  O   UNL     1      -1.193  -0.373  -0.503  0.00  0.00    +0.000 OA
ATOM      2  O   UNL     1      -1.264  -1.169   2.367  0.00  0.00    +0.000 OA
ATOM      3  O   UNL     1      -3.252  -0.963   3.701  0.00  0.00    +0.000 OA
ATOM      4  O   UNL     1       2.186   3.244   0.902  0.00  0.00    +0.000 OA
ATOM      5  N   UNL     1      -4.739   1.130  -2.245  0.00  0.00    +0.000 N 
ATOM      6  N   UNL     1       4.077  -3.354  -1.053  0.00  0.00    +0.000 N 
ATOM      7  C   UNL     1      -3.425   1.070  -1.556  0.00  0.00    +0.000 C 
ATOM      8  C   UNL     1      -3.435   0.369  -0.196  0.00  0.00    +0.000 A 
ATOM      9  C   UNL     1       3.370  -2.104  -0.692  0.00  0.00    +0.000 C 
ATOM     10  C   UNL     1      -4.609   0.441   0.596  0.00  0.00    +0.000 A 
ATOM     11  C   UNL     1      -5.877   0.576  -1.507  0.00  0.00    +0.000 C 
ATOM     12  C   UNL     1      -5.855   0.994  -0.036  0.00  0.00    +0.000 C 
ATOM     13  C   UNL     1       1.867  -2.360  -0.567  0.00  0.00    +0.000 A 
ATOM     14  C   UNL     1      -2.974   2.555  -1.413  0.00  0.00    +0.000 C 
ATOM     15  C   UNL     1       3.788  -4.434  -0.110  0.00  0.00    +0.000 C 
ATOM     16  C   UNL     1       1.378  -3.652  -0.304  0.00  0.00    +0.000 A 
ATOM     17  C   UNL     1       2.315  -4.831  -0.230  0.00  0.00    +0.000 C 
ATOM     18  C   UNL     1      -2.287  -0.268   0.321  0.00  0.00    +0.000 A 
ATOM     19  C   UNL     1       3.894  -1.399   0.599  0.00  0.00    +0.000 C 
ATOM     20  C   UNL     1      -4.608   0.000   1.924  0.00  0.00    +0.000 A 
ATOM     21  C   UNL     1      -2.304  -0.656   1.651  0.00  0.00    +0.000 A 
ATOM     22  C   UNL     1       0.957  -1.299  -0.667  0.00  0.00    +0.000 A 
ATOM     23  C   UNL     1      -4.677   0.590  -3.601  0.00  0.00    +0.000 C 
ATOM     24  C   UNL     1      -0.409  -1.502  -0.456  0.00  0.00    +0.000 A 
ATOM     25  C   UNL     1      -3.436  -0.524   2.425  0.00  0.00    +0.000 A 
ATOM     26  C   UNL     1      -1.595   2.767  -0.830  0.00  0.00    +0.000 A 
ATOM     27  C   UNL     1      -0.004  -3.862  -0.180  0.00  0.00    +0.000 A 
ATOM     28  C   UNL     1       5.506  -3.186  -1.281  0.00  0.00    +0.000 C 
ATOM     29  C   UNL     1       4.055   0.096   0.423  0.00  0.00    +0.000 A 
ATOM     30  C   UNL     1      -0.896  -2.793  -0.260  0.00  0.00    +0.000 A 
ATOM     31  C   UNL     1      -0.452   2.600  -1.622  0.00  0.00    +0.000 A 
ATOM     32  C   UNL     1      -1.442   3.113   0.521  0.00  0.00    +0.000 A 
ATOM     33  C   UNL     1      -1.873  -1.371   3.656  0.00  0.00    +0.000 C 
ATOM     34  C   UNL     1       3.049   0.985   0.824  0.00  0.00    +0.000 A 
ATOM     35  C   UNL     1       5.210   0.610  -0.187  0.00  0.00    +0.000 A 
ATOM     36  C   UNL     1       3.179   2.353   0.563  0.00  0.00    +0.000 A 
ATOM     37  C   UNL     1       0.822   2.756  -1.070  0.00  0.00    +0.000 A 
ATOM     38  C   UNL     1      -0.170   3.263   1.077  0.00  0.00    +0.000 A 
ATOM     39  C   UNL     1       0.963   3.063   0.288  0.00  0.00    +0.000 A 
ATOM     40  C   UNL     1       5.357   1.983  -0.392  0.00  0.00    +0.000 A 
ATOM     41  C   UNL     1       4.343   2.859  -0.015  0.00  0.00    +0.000 A 
ATOM     42  H   UNL     1      -4.930   2.131  -2.295  0.00  0.00    +0.000 HD
ATOM     43  H   UNL     1       3.697  -3.628  -1.959  0.00  0.00    +0.000 HD
ENDROOT
BRANCH  30  44
ATOM     44  O   UNL     1      -2.223  -3.077  -0.146  0.00  0.00    +0.000 OA
ATOM     45  C   UNL     1      -2.929  -3.375  -1.348  0.00  0.00    +0.000 C 
ENDBRANCH  30  44
BRANCH  41  46
ATOM     46  O   UNL     1       4.505   4.195  -0.213  0.00  0.00    +0.000 OA
ATOM     47  C   UNL     1       5.108   4.938   0.844  0.00  0.00    +0.000 C 
ENDBRANCH  41  46
TORSDOF 2
