REMARK  Name = 3194
REMARK  1 active torsions:
REMARK  status: ('A' for Active; 'I' for Inactive)
REMARK    1  A    between atoms: N_3  and  C_7
REMARK                            x       y       z     vdW  Elec       q    Type
REMARK                         _______ _______ _______ _____ _____    ______ ____
ROOT
ATOM      1 SE   UNL     1      -1.820  -0.070   0.523  0.00  0.00    +0.000 Se
ATOM      2  O   UNL     1      -0.099   0.549  -1.702  0.00  0.00    +0.000 OA
ATOM      3  N   UNL     1       0.417  -0.014   0.439  0.00  0.00    +0.000 N 
ATOM      4  C   UNL     1      -1.838   0.132  -0.243  0.00  0.00    +0.000 A 
ATOM      5  C   UNL     1      -2.204  -0.217   1.061  0.00  0.00    +0.000 A 
ATOM      6  C   UNL     1      -0.483   0.227  -0.543  0.00  0.00    +0.000 A 
ATOM      7  C   UNL     1      -2.842   0.374  -1.201  0.00  0.00    +0.000 A 
ATOM      8  C   UNL     1      -3.551  -0.326   1.414  0.00  0.00    +0.000 A 
ATOM      9  C   UNL     1      -4.191   0.265  -0.845  0.00  0.00    +0.000 A 
ATOM     10  C   UNL     1      -4.545  -0.085   0.461  0.00  0.00    +0.000 A 
ENDROOT
BRANCH   3  11
ATOM     11  C   UNL     1       1.840  -0.044   0.264  0.00  0.00    +0.000 A 
ATOM     12  C   UNL     1       2.429  -0.738  -0.808  0.00  0.00    +0.000 A 
ATOM     13  C   UNL     1       2.659   0.581   1.214  0.00  0.00    +0.000 A 
ATOM     14  C   UNL     1       3.821  -0.776  -0.939  0.00  0.00    +0.000 A 
ATOM     15  C   UNL     1       4.050   0.542   1.079  0.00  0.00    +0.000 A 
ATOM     16  C   UNL     1       4.631  -0.133   0.001  0.00  0.00    +0.000 A 
ENDBRANCH   3  11
TORSDOF 1
