REMARK  Name = 3652
REMARK  12 active torsions:
REMARK  status: ('A' for Active; 'I' for Inactive)
REMARK    1  A    between atoms: O_2  and  C_14
REMARK    2  A    between atoms: N_3  and  C_9
REMARK    3  A    between atoms: N_3  and  C_10
REMARK    4  A    between atoms: N_3  and  C_12
REMARK    5  A    between atoms: N_4  and  C_8
REMARK    6  A    between atoms: N_4  and  C_13
REMARK    7  A    between atoms: C_6  and  C_7
REMARK    8  A    between atoms: C_6  and  C_8
REMARK    9  A    between atoms: C_7  and  C_9
REMARK   10  A    between atoms: C_8  and  C_11
REMARK   11  A    between atoms: C_10  and  C_14
REMARK   12  A    between atoms: C_12  and  C_15
REMARK                            x       y       z     vdW  Elec       q    Type
REMARK                         _______ _______ _______ _____ _____    ______ ____
ROOT
ATOM      1  N   UNL     1       0.041   2.464  -0.307  0.00  0.00    +0.000 N 
ATOM      2  H   UNL     1      -0.373   2.809  -1.131  0.00  0.00    +0.000 HD
ENDROOT
BRANCH   1   5
ATOM      3 CL   UNL     1      -4.907  -1.988  -1.610  0.00  0.00    +0.000 Cl
ATOM      4  N   UNL     1      -2.189  -0.047   2.210  0.00  0.00    +0.000 NA
ATOM      5  C   UNL     1      -0.708   1.627   0.500  0.00  0.00    +0.000 A 
ATOM      6  C   UNL     1      -1.712   0.763  -0.009  0.00  0.00    +0.000 A 
ATOM      7  C   UNL     1      -0.475   1.621   1.883  0.00  0.00    +0.000 A 
ATOM      8  C   UNL     1      -2.430  -0.058   0.886  0.00  0.00    +0.000 A 
ATOM      9  C   UNL     1      -1.989   0.725  -1.386  0.00  0.00    +0.000 A 
ATOM     10  C   UNL     1      -1.229   0.783   2.679  0.00  0.00    +0.000 A 
ATOM     11  C   UNL     1      -3.410  -0.897   0.361  0.00  0.00    +0.000 A 
ATOM     12  C   UNL     1      -2.975  -0.123  -1.883  0.00  0.00    +0.000 A 
ATOM     13  C   UNL     1      -3.686  -0.935  -1.008  0.00  0.00    +0.000 A 
ENDBRANCH   1   5
BRANCH   1  14
ATOM     14  C   UNL     1       1.400   2.862  -0.006  0.00  0.00    +0.000 C 
ATOM     15  C   UNL     1       1.879   3.820  -1.092  0.00  0.00    +0.000 C 
BRANCH  14  16
ATOM     16  C   UNL     1       2.309   1.628   0.077  0.00  0.00    +0.000 C 
BRANCH  16  17
ATOM     17  C   UNL     1       2.390   0.867  -1.253  0.00  0.00    +0.000 C 
BRANCH  17  18
ATOM     18  C   UNL     1       3.353  -0.316  -1.151  0.00  0.00    +0.000 C 
BRANCH  18  19
ATOM     19  N   UNL     1       2.917  -1.236  -0.107  0.00  0.00    +0.000 N 
ATOM     20  H   UNL     1       2.921  -0.735   0.781  0.00  0.00    +0.000 HD
BRANCH  19  21
ATOM     21  C   UNL     1       3.834  -2.372  -0.005  0.00  0.00    +0.000 C 
ATOM     22  C   UNL     1       5.242  -1.911   0.333  0.00  0.00    +0.000 C 
ENDBRANCH  19  21
BRANCH  19  23
ATOM     23  C   UNL     1       1.555  -1.706  -0.370  0.00  0.00    +0.000 C 
BRANCH  23  24
ATOM     24  C   UNL     1       1.058  -2.578   0.772  0.00  0.00    +0.000 C 
BRANCH  24  25
ATOM     25  O   UNL     1      -0.269  -2.996   0.483  0.00  0.00    +0.000 OA
ATOM     26  H   UNL     1      -0.597  -3.554   1.206  0.00  0.00    +0.000 HD
ENDBRANCH  24  25
ENDBRANCH  23  24
ENDBRANCH  19  23
ENDBRANCH  18  19
ENDBRANCH  17  18
ENDBRANCH  16  17
ENDBRANCH  14  16
ENDBRANCH   1  14
TORSDOF 10
