REMARK  Name = 6321424
REMARK  21 active torsions:
REMARK  status: ('A' for Active; 'I' for Inactive)
REMARK    1  A    between atoms: O_5  and  C_25
REMARK    2  A    between atoms: O_6  and  C_31
REMARK    3  A    between atoms: O_8  and  C_42
REMARK    4  A    between atoms: O_8  and  C_46
REMARK    5  A    between atoms: O_10  and  C_47
REMARK    6  A    between atoms: O_10  and  C_54
REMARK    7  A    between atoms: O_11  and  C_48
REMARK    8  A    between atoms: O_11  and  C_61
REMARK    9  A    between atoms: O_13  and  C_56
REMARK   10  A    between atoms: O_13  and  C_62
REMARK   11  A    between atoms: O_14  and  C_57
REMARK   12  A    between atoms: C_16  and  C_24
REMARK   13  A    between atoms: C_17  and  C_28
REMARK   14  A    between atoms: C_24  and  C_30
REMARK   15  A    between atoms: C_24  and  C_33
REMARK   16  A    between atoms: C_30  and  C_39
REMARK   17  A    between atoms: C_36  and  C_43
REMARK   18  A    between atoms: C_41  and  C_52
REMARK   19  A    between atoms: C_44  and  C_53
REMARK   20  A    between atoms: C_51  and  C_58
REMARK   21  A    between atoms: C_59  and  C_60
REMARK                            x       y       z     vdW  Elec       q    Type
REMARK                         _______ _______ _______ _____ _____    ______ ____
ROOT
ATOM      1  O   UNL     1      -5.344   2.389  -0.522  0.00  0.00    +0.000 OA
ATOM      2  O   UNL     1      -3.377   1.982  -1.758  0.00  0.00    +0.000 OA
ATOM      3  O   UNL     1      -4.768  -1.875  -1.205  0.00  0.00    +0.000 OA
ATOM      4  O   UNL     1      -3.747  -6.185   2.300  0.00  0.00    +0.000 OA
ATOM      5  O   UNL     1      -6.803  -2.152  -0.146  0.00  0.00    +0.000 OA
ATOM      6  C   UNL     1      -4.799   1.875  -1.736  0.00  0.00    +0.000 C 
ATOM      7  C   UNL     1      -5.021   3.761  -0.314  0.00  0.00    +0.000 C 
ATOM      8  C   UNL     1      -5.678   4.638  -1.431  0.00  0.00    +0.000 C 
ATOM      9  C   UNL     1      -5.390   2.646  -2.939  0.00  0.00    +0.000 C 
ATOM     10  C   UNL     1      -5.235   0.398  -1.900  0.00  0.00    +0.000 C 
ATOM     11  C   UNL     1      -5.171   4.149  -2.797  0.00  0.00    +0.000 C 
ATOM     12  C   UNL     1      -4.552  -0.506  -0.875  0.00  0.00    +0.000 C 
ATOM     13  C   UNL     1      -2.751   1.234  -0.720  0.00  0.00    +0.000 C 
ATOM     14  C   UNL     1      -3.046  -0.258  -0.901  0.00  0.00    +0.000 C 
ATOM     15  C   UNL     1      -4.656  -4.356   0.979  0.00  0.00    +0.000 C 
ATOM     16  C   UNL     1      -5.448  -4.137  -0.374  0.00  0.00    +0.000 C 
ATOM     17  C   UNL     1      -4.934  -5.717   1.672  0.00  0.00    +0.000 C 
ATOM     18  C   UNL     1      -5.388   6.142  -1.307  0.00  0.00    +0.000 C 
ATOM     19  C   UNL     1      -1.237   1.550  -0.731  0.00  0.00    +0.000 C 
ATOM     20  C   UNL     1      -5.486  -6.779   0.700  0.00  0.00    +0.000 C 
ATOM     21  C   UNL     1      -3.177  -4.459   0.826  0.00  0.00    +0.000 C 
ATOM     22  C   UNL     1      -5.754  -2.675  -0.618  0.00  0.00    +0.000 C 
ATOM     23  C   UNL     1      -6.715  -4.967  -0.440  0.00  0.00    +0.000 C 
ATOM     24  C   UNL     1      -6.734  -6.222   0.036  0.00  0.00    +0.000 C 
ATOM     25  C   UNL     1      -2.656  -5.464   1.780  0.00  0.00    +0.000 C 
ATOM     26  C   UNL     1      -0.373   0.587   0.076  0.00  0.00    +0.000 C 
ATOM     27  C   UNL     1      -2.406  -3.701   0.027  0.00  0.00    +0.000 C 
ATOM     28  C   UNL     1       0.409  -0.390  -0.457  0.00  0.00    +0.000 C 
ATOM     29  C   UNL     1       1.337  -1.252   0.416  0.00  0.00    +0.000 C 
ATOM     30  C   UNL     1      -7.991  -7.051  -0.069  0.00  0.00    +0.000 C 
ATOM     31  C   UNL     1       0.670  -2.046   1.590  0.00  0.00    +0.000 C 
ATOM     32  C   UNL     1      -1.004  -3.413   0.343  0.00  0.00    +0.000 C 
ATOM     33  C   UNL     1      -0.731  -2.506   1.286  0.00  0.00    +0.000 C 
ATOM     34  C   UNL     1       0.519  -0.555  -1.959  0.00  0.00    +0.000 C 
ATOM     35  C   UNL     1       0.708  -1.327   2.950  0.00  0.00    +0.000 C 
ENDROOT
BRANCH  15  36
ATOM     36  O   UNL     1      -4.956  -3.346   1.917  0.00  0.00    +0.000 OA
ATOM     37  H   UNL     1      -5.918  -3.276   2.020  0.00  0.00    +0.000 HD
ENDBRANCH  15  36
BRANCH  20  38
ATOM     38  O   UNL     1      -4.518  -7.105  -0.274  0.00  0.00    +0.000 OA
ATOM     39  H   UNL     1      -3.727  -7.459   0.162  0.00  0.00    +0.000 HD
ENDBRANCH  20  38
BRANCH   7  40
ATOM     40  C   UNL     1      -5.415   4.107   1.159  0.00  0.00    +0.000 C 
ATOM     41  C   UNL     1      -4.605   5.280   1.745  0.00  0.00    +0.000 C 
BRANCH  40  42
ATOM     42  C   UNL     1      -6.931   4.314   1.405  0.00  0.00    +0.000 C 
ATOM     43  C   UNL     1      -7.754   3.049   1.144  0.00  0.00    +0.000 C 
ENDBRANCH  40  42
ENDBRANCH   7  40
BRANCH  29  44
ATOM     44  O   UNL     1       2.391  -0.436   0.910  0.00  0.00    +0.000 OA
BRANCH  44  46
ATOM     45  O   UNL     1       4.614  -0.982   0.945  0.00  0.00    +0.000 OA
ATOM     46  C   UNL     1       3.569  -0.496   0.120  0.00  0.00    +0.000 C 
ATOM     47  C   UNL     1       6.309   0.251  -0.396  0.00  0.00    +0.000 C 
ATOM     48  C   UNL     1       5.173   0.914  -1.203  0.00  0.00    +0.000 C 
ATOM     49  C   UNL     1       3.885   0.922  -0.377  0.00  0.00    +0.000 C 
ATOM     50  C   UNL     1       5.856  -1.084   0.261  0.00  0.00    +0.000 C 
ATOM     51  C   UNL     1       5.896  -2.292  -0.692  0.00  0.00    +0.000 C 
BRANCH  48  52
ATOM     52  O   UNL     1       4.941   0.210  -2.410  0.00  0.00    +0.000 OA
ATOM     53  C   UNL     1       5.629   0.812  -3.485  0.00  0.00    +0.000 C 
ENDBRANCH  48  52
BRANCH  47  54
ATOM     54  O   UNL     1       6.714   1.161   0.615  0.00  0.00    +0.000 OA
BRANCH  54  56
ATOM     55  O   UNL     1       8.293   1.396   2.261  0.00  0.00    +0.000 OA
ATOM     56  C   UNL     1       8.107   1.101   0.882  0.00  0.00    +0.000 C 
ATOM     57  C   UNL     1       8.850   2.049  -0.087  0.00  0.00    +0.000 C 
ATOM     58  C   UNL     1      10.358   2.063   0.220  0.00  0.00    +0.000 C 
ATOM     59  C   UNL     1      10.630   1.980   1.744  0.00  0.00    +0.000 C 
ATOM     60  C   UNL     1       9.351   2.299   2.554  0.00  0.00    +0.000 C 
ATOM     61  C   UNL     1       9.627   2.227   4.059  0.00  0.00    +0.000 C 
BRANCH  58  62
ATOM     62  O   UNL     1      10.980   0.951  -0.404  0.00  0.00    +0.000 OA
ATOM     63  C   UNL     1      11.582   1.321  -1.625  0.00  0.00    +0.000 C 
ENDBRANCH  58  62
BRANCH  59  64
ATOM     64  O   UNL     1      11.652   2.882   2.091  0.00  0.00    +0.000 OA
ATOM     65  H   UNL     1      12.451   2.676   1.580  0.00  0.00    +0.000 HD
ENDBRANCH  59  64
ENDBRANCH  54  56
ENDBRANCH  47  54
ENDBRANCH  44  46
ENDBRANCH  29  44
TORSDOF 11
