REMARK  Name = 92727
REMARK  20 active torsions:
REMARK  status: ('A' for Active; 'I' for Inactive)
REMARK    1  A    between atoms: O_1  and  C_13
REMARK    2  A    between atoms: O_5  and  C_32
REMARK    3  A    between atoms: O_5  and  C_39
REMARK    4  A    between atoms: N_6  and  C_11
REMARK    5  A    between atoms: N_7  and  C_10
REMARK    6  A    between atoms: N_8  and  C_15
REMARK    7  A    between atoms: C_10  and  C_12
REMARK    8  A    between atoms: C_10  and  C_16
REMARK    9  A    between atoms: C_11  and  C_14
REMARK   10  A    between atoms: C_11  and  C_17
REMARK   11  A    between atoms: C_12  and  C_13
REMARK   12  A    between atoms: C_13  and  C_15
REMARK   13  A    between atoms: C_14  and  C_22
REMARK   14  A    between atoms: C_14  and  C_23
REMARK   15  A    between atoms: C_15  and  C_20
REMARK   16  A    between atoms: C_16  and  C_25
REMARK   17  A    between atoms: C_20  and  C_26
REMARK   18  A    between atoms: C_27  and  C_32
REMARK   19  A    between atoms: C_40  and  C_44
REMARK   20  A    between atoms: C_41  and  C_45
REMARK                            x       y       z     vdW  Elec       q    Type
REMARK                         _______ _______ _______ _____ _____    ______ ____
ROOT
ATOM      1  C   UNL     1      -0.372   0.021  -0.861  0.00  0.00    +0.000 C 
ENDROOT
BRANCH   1   2
ATOM      2  C   UNL     1      -1.428  -1.105  -0.806  0.00  0.00    +0.000 C 
BRANCH   2   4
ATOM      3  O   UNL     1      -3.051  -2.603   1.017  0.00  0.00    +0.000 OA
ATOM      4  N   UNL     1      -2.650  -0.622  -0.152  0.00  0.00    +0.000 N 
ATOM      5  C   UNL     1      -3.379  -1.403   0.809  0.00  0.00    +0.000 C 
ATOM      6  H   UNL     1      -2.984   0.275  -0.382  0.00  0.00    +0.000 HD
BRANCH   5   7
ATOM      7  C   UNL     1      -4.446  -0.747   1.660  0.00  0.00    +0.000 C 
BRANCH   7   9
ATOM      8  O   UNL     1      -4.981   1.990   2.336  0.00  0.00    +0.000 OA
ATOM      9  N   UNL     1      -5.289   0.179   0.863  0.00  0.00    +0.000 N 
ATOM     10  N   UNL     1      -5.841   2.527   0.239  0.00  0.00    +0.000 N 
ATOM     11  C   UNL     1      -6.040  -0.270  -0.321  0.00  0.00    +0.000 C 
ATOM     12  C   UNL     1      -5.891   0.735  -1.466  0.00  0.00    +0.000 C 
ATOM     13  C   UNL     1      -5.359   1.581   1.204  0.00  0.00    +0.000 C 
ATOM     14  C   UNL     1      -6.416   2.110  -1.038  0.00  0.00    +0.000 C 
ATOM     15  H   UNL     1      -5.783   3.489   0.444  0.00  0.00    +0.000 HD
ENDBRANCH   7   9
BRANCH   7  16
ATOM     16  C   UNL     1      -5.290  -1.748   2.509  0.00  0.00    +0.000 C 
ATOM     17  C   UNL     1      -6.124  -2.747   1.689  0.00  0.00    +0.000 C 
ATOM     18  C   UNL     1      -6.192  -1.004   3.503  0.00  0.00    +0.000 C 
ENDBRANCH   7  16
ENDBRANCH   5   7
ENDBRANCH   2   4
BRANCH   2  19
ATOM     19  C   UNL     1      -1.752  -1.599  -2.230  0.00  0.00    +0.000 C 
BRANCH  19  20
ATOM     20  C   UNL     1      -2.739  -2.738  -2.216  0.00  0.00    +0.000 A 
ATOM     21  C   UNL     1      -2.339  -4.021  -1.804  0.00  0.00    +0.000 A 
ATOM     22  C   UNL     1      -4.081  -2.517  -2.566  0.00  0.00    +0.000 A 
ATOM     23  C   UNL     1      -3.273  -5.059  -1.727  0.00  0.00    +0.000 A 
ATOM     24  C   UNL     1      -5.013  -3.556  -2.485  0.00  0.00    +0.000 A 
ATOM     25  C   UNL     1      -4.610  -4.825  -2.064  0.00  0.00    +0.000 A 
ENDBRANCH  19  20
ENDBRANCH   2  19
ENDBRANCH   1   2
BRANCH   1  26
ATOM     26  C   UNL     1       0.085   0.486   0.541  0.00  0.00    +0.000 C 
BRANCH  26  27
ATOM     27  O   UNL     1      -0.962   1.187   1.164  0.00  0.00    +0.000 OA
ATOM     28  H   UNL     1      -1.757   0.632   1.184  0.00  0.00    +0.000 HD
ENDBRANCH  26  27
BRANCH  26  29
ATOM     29  C   UNL     1       1.355   1.376   0.511  0.00  0.00    +0.000 C 
BRANCH  29  31
ATOM     30  O   UNL     1       3.358   0.250   2.236  0.00  0.00    +0.000 OA
ATOM     31  N   UNL     1       2.522   0.599   0.073  0.00  0.00    +0.000 N 
ATOM     32  C   UNL     1       3.508   0.102   0.990  0.00  0.00    +0.000 C 
ATOM     33  H   UNL     1       2.631   0.411  -0.887  0.00  0.00    +0.000 HD
BRANCH  32  34
ATOM     34  C   UNL     1       4.751  -0.555   0.484  0.00  0.00    +0.000 C 
BRANCH  34  35
ATOM     35  O   UNL     1       5.873   0.247   0.832  0.00  0.00    +0.000 OA
BRANCH  35  36
ATOM     36  C   UNL     1       7.165  -0.045   0.385  0.00  0.00    +0.000 A 
ATOM     37  C   UNL     1       7.727   0.740  -0.640  0.00  0.00    +0.000 A 
ATOM     38  C   UNL     1       7.919  -1.088   0.968  0.00  0.00    +0.000 A 
ATOM     39  C   UNL     1       9.022   0.460  -1.100  0.00  0.00    +0.000 A 
ATOM     40  C   UNL     1       9.205  -1.366   0.476  0.00  0.00    +0.000 A 
ATOM     41  C   UNL     1       6.949   1.883  -1.223  0.00  0.00    +0.000 C 
ATOM     42  C   UNL     1       7.369  -1.924   2.090  0.00  0.00    +0.000 C 
ATOM     43  C   UNL     1       9.751  -0.595  -0.551  0.00  0.00    +0.000 A 
ENDBRANCH  35  36
ENDBRANCH  34  35
ENDBRANCH  32  34
ENDBRANCH  29  31
BRANCH  29  44
ATOM     44  C   UNL     1       1.193   2.636  -0.366  0.00  0.00    +0.000 C 
BRANCH  44  45
ATOM     45  C   UNL     1       2.397   3.537  -0.249  0.00  0.00    +0.000 A 
ATOM     46  C   UNL     1       3.371   3.558  -1.261  0.00  0.00    +0.000 A 
ATOM     47  C   UNL     1       2.581   4.328   0.899  0.00  0.00    +0.000 A 
ATOM     48  C   UNL     1       4.499   4.374  -1.135  0.00  0.00    +0.000 A 
ATOM     49  C   UNL     1       3.717   5.132   1.025  0.00  0.00    +0.000 A 
ATOM     50  C   UNL     1       4.674   5.158   0.006  0.00  0.00    +0.000 A 
ENDBRANCH  44  45
ENDBRANCH  29  44
ENDBRANCH  26  29
ENDBRANCH   1  26
TORSDOF 16
