REMARK  Name = 145996610
REMARK  10 active torsions:
REMARK  status: ('A' for Active; 'I' for Inactive)
REMARK    1  A    between atoms: O_2  and  C_11
REMARK    2  A    between atoms: O_3  and  C_12
REMARK    3  A    between atoms: O_4  and  C_15
REMARK    4  A    between atoms: O_4  and  C_18
REMARK    5  A    between atoms: O_7  and  N_10
REMARK    6  A    between atoms: N_8  and  C_14
REMARK    7  A    between atoms: C_13  and  C_15
REMARK    8  A    between atoms: C_18  and  C_20
REMARK    9  A    between atoms: C_20  and  C_22
REMARK   10  A    between atoms: C_20  and  C_23
REMARK                            x       y       z     vdW  Elec       q    Type
REMARK                         _______ _______ _______ _____ _____    ______ ____
ROOT
ATOM      1  O   UNL     1      -0.426   1.237   1.061  0.00  0.00    +0.000 OA
ATOM      2  C   UNL     1      -0.640   3.078  -0.419  0.00  0.00    +0.000 C 
ATOM      3  C   UNL     1       0.662   2.362  -0.721  0.00  0.00    +0.000 C 
ATOM      4  C   UNL     1      -1.415   2.022   0.360  0.00  0.00    +0.000 C 
ATOM      5  C   UNL     1       0.877   1.545   0.541  0.00  0.00    +0.000 C 
ENDROOT
BRANCH   5   7
ATOM      6  O   UNL     1       3.664   1.201   0.770  0.00  0.00    +0.000 OA
ATOM      7  N   UNL     1       1.585   0.323   0.288  0.00  0.00    +0.000 N 
ATOM      8  N   UNL     1       3.610  -0.986   0.165  0.00  0.00    +0.000 NA
ATOM      9  N   UNL     1       3.548  -3.226  -0.457  0.00  0.00    +0.000 N 
ATOM     10  C   UNL     1       0.865  -0.796  -0.104  0.00  0.00    +0.000 A 
ATOM     11  C   UNL     1       2.993   0.226   0.425  0.00  0.00    +0.000 A 
ATOM     12  C   UNL     1       1.439  -1.970  -0.360  0.00  0.00    +0.000 A 
ATOM     13  C   UNL     1       2.916  -2.030  -0.204  0.00  0.00    +0.000 A 
ATOM     14  H   UNL     1       3.076  -4.029  -0.776  0.00  0.00    +0.000 HD
BRANCH   9  15
ATOM     15  O   UNL     1       4.892  -3.191  -0.225  0.00  0.00    +0.000 OA
ATOM     16  H   UNL     1       5.277  -4.059  -0.422  0.00  0.00    +0.000 HD
ENDBRANCH   9  15
ENDBRANCH   5   7
BRANCH   2  17
ATOM     17  O   UNL     1      -0.413   4.211   0.419  0.00  0.00    +0.000 OA
ATOM     18  H   UNL     1       0.081   4.885  -0.075  0.00  0.00    +0.000 HD
ENDBRANCH   2  17
BRANCH   3  19
ATOM     19  O   UNL     1       1.737   3.242  -0.971  0.00  0.00    +0.000 OA
ATOM     20  H   UNL     1       1.562   3.744  -1.783  0.00  0.00    +0.000 HD
ENDBRANCH   3  19
BRANCH   4  21
ATOM     21  C   UNL     1      -2.215   1.084  -0.534  0.00  0.00    +0.000 C 
BRANCH  21  22
ATOM     22  O   UNL     1      -2.886   0.141   0.283  0.00  0.00    +0.000 OA
BRANCH  22  24
ATOM     23  O   UNL     1      -3.803  -0.850  -1.587  0.00  0.00    +0.000 OA
ATOM     24  C   UNL     1      -3.658  -0.785  -0.373  0.00  0.00    +0.000 C 
BRANCH  24  25
ATOM     25  C   UNL     1      -4.299  -1.729   0.628  0.00  0.00    +0.000 C 
ATOM     26  C   UNL     1      -5.662  -2.202   0.131  0.00  0.00    +0.000 C 
ATOM     27  C   UNL     1      -3.372  -2.911   0.886  0.00  0.00    +0.000 C 
ENDBRANCH  24  25
ENDBRANCH  22  24
ENDBRANCH  21  22
ENDBRANCH   4  21
TORSDOF 8
