REMARK  Name = 64143
REMARK  16 active torsions:
REMARK  status: ('A' for Active; 'I' for Inactive)
REMARK    1  A    between atoms: S_1  and  C_23
REMARK    2  A    between atoms: S_1  and  C_29
REMARK    3  A    between atoms: O_3  and  C_20
REMARK    4  A    between atoms: O_5  and  C_34
REMARK    5  A    between atoms: N_6  and  C_18
REMARK    6  A    between atoms: N_7  and  C_22
REMARK    7  A    between atoms: N_8  and  C_21
REMARK    8  A    between atoms: C_15  and  C_19
REMARK    9  A    between atoms: C_18  and  C_20
REMARK   10  A    between atoms: C_20  and  C_21
REMARK   11  A    between atoms: C_21  and  C_23
REMARK   12  A    between atoms: C_22  and  C_24
REMARK   13  A    between atoms: C_22  and  C_25
REMARK   14  A    between atoms: C_22  and  C_26
REMARK   15  A    between atoms: C_27  and  C_28
REMARK   16  A    between atoms: C_30  and  C_35
REMARK                            x       y       z     vdW  Elec       q    Type
REMARK                         _______ _______ _______ _____ _____    ______ ____
ROOT
ATOM      1  C   UNL     1       0.475   0.860   1.882  0.00  0.00    +0.000 C 
ENDROOT
BRANCH   1   2
ATOM      2  O   UNL     1       1.130   0.592   3.123  0.00  0.00    +0.000 OA
ATOM      3  H   UNL     1       0.692   1.086   3.833  0.00  0.00    +0.000 HD
ENDBRANCH   1   2
BRANCH   1   4
ATOM      4  C   UNL     1      -1.020   0.549   2.043  0.00  0.00    +0.000 C 
BRANCH   4   5
ATOM      5  N   UNL     1      -1.769   0.778   0.807  0.00  0.00    +0.000 N 
ATOM      6  C   UNL     1      -4.532   1.771   1.393  0.00  0.00    +0.000 C 
ATOM      7  C   UNL     1      -3.281   2.651   1.573  0.00  0.00    +0.000 C 
ATOM      8  C   UNL     1      -4.159   0.281   1.495  0.00  0.00    +0.000 C 
ATOM      9  C   UNL     1      -2.142   2.192   0.645  0.00  0.00    +0.000 C 
ATOM     10  C   UNL     1      -5.299   2.098   0.101  0.00  0.00    +0.000 C 
ATOM     11  C   UNL     1      -3.608   4.142   1.389  0.00  0.00    +0.000 C 
ATOM     12  C   UNL     1      -2.915  -0.133   0.694  0.00  0.00    +0.000 C 
ATOM     13  C   UNL     1      -5.638   3.582   0.006  0.00  0.00    +0.000 C 
ATOM     14  C   UNL     1      -4.385   4.444   0.111  0.00  0.00    +0.000 C 
ATOM     15  H   UNL     1      -1.150   0.560   0.026  0.00  0.00    +0.000 HD
BRANCH  12  18
ATOM     16  O   UNL     1      -2.602   0.299  -1.635  0.00  0.00    +0.000 OA
ATOM     17  N   UNL     1      -4.245  -1.215  -0.980  0.00  0.00    +0.000 N 
ATOM     18  C   UNL     1      -3.215  -0.316  -0.765  0.00  0.00    +0.000 C 
ATOM     19  H   UNL     1      -4.660  -1.647  -0.199  0.00  0.00    +0.000 HD
BRANCH  17  20
ATOM     20  C   UNL     1      -4.741  -1.549  -2.296  0.00  0.00    +0.000 C 
ATOM     21  C   UNL     1      -5.877  -2.570  -2.165  0.00  0.00    +0.000 C 
ATOM     22  C   UNL     1      -5.262  -0.277  -2.973  0.00  0.00    +0.000 C 
ATOM     23  C   UNL     1      -3.603  -2.151  -3.128  0.00  0.00    +0.000 C 
ENDBRANCH  17  20
ENDBRANCH  12  18
ENDBRANCH   4   5
ENDBRANCH   1   4
BRANCH   1  24
ATOM     24  C   UNL     1       1.184   0.066   0.760  0.00  0.00    +0.000 C 
BRANCH  24  26
ATOM     25  O   UNL     1       2.181   2.213  -0.863  0.00  0.00    +0.000 OA
ATOM     26  N   UNL     1       2.565   0.479   0.627  0.00  0.00    +0.000 N 
ATOM     27  C   UNL     1       2.947   1.533  -0.185  0.00  0.00    +0.000 C 
ATOM     28  H   UNL     1       3.256  -0.006   1.133  0.00  0.00    +0.000 HD
BRANCH  27  29
ATOM     29  C   UNL     1       4.405   1.815  -0.234  0.00  0.00    +0.000 A 
ATOM     30  C   UNL     1       5.114   1.751  -1.433  0.00  0.00    +0.000 A 
ATOM     31  C   UNL     1       5.064   2.148   0.950  0.00  0.00    +0.000 A 
ATOM     32  C   UNL     1       6.483   2.021  -1.449  0.00  0.00    +0.000 A 
ATOM     33  C   UNL     1       4.416   1.394  -2.707  0.00  0.00    +0.000 C 
ATOM     34  C   UNL     1       6.432   2.418   0.934  0.00  0.00    +0.000 A 
ATOM     35  C   UNL     1       7.141   2.355  -0.265  0.00  0.00    +0.000 A 
BRANCH  32  36
ATOM     36  O   UNL     1       7.193   1.964  -2.610  0.00  0.00    +0.000 OA
ATOM     37  H   UNL     1       6.762   1.741  -3.412  0.00  0.00    +0.000 HD
ENDBRANCH  32  36
ENDBRANCH  27  29
ENDBRANCH  24  26
BRANCH  24  38
ATOM     38  C   UNL     1       1.096  -1.447   1.018  0.00  0.00    +0.000 C 
BRANCH  38  39
ATOM     39  S   UNL     1       1.907  -2.415  -0.295  0.00  0.00    +0.000 S 
BRANCH  39  40
ATOM     40  C   UNL     1       1.637  -4.085   0.286  0.00  0.00    +0.000 A 
ATOM     41  C   UNL     1       0.947  -4.305   1.478  0.00  0.00    +0.000 A 
ATOM     42  C   UNL     1       2.116  -5.167  -0.453  0.00  0.00    +0.000 A 
ATOM     43  C   UNL     1       0.737  -5.608   1.931  0.00  0.00    +0.000 A 
ATOM     44  C   UNL     1       1.906  -6.469   0.000  0.00  0.00    +0.000 A 
ATOM     45  C   UNL     1       1.216  -6.689   1.192  0.00  0.00    +0.000 A 
ENDBRANCH  39  40
ENDBRANCH  38  39
ENDBRANCH  24  38
ENDBRANCH   1  24
TORSDOF 12
