REMARK  Name = 155903259
REMARK  14 active torsions:
REMARK  status: ('A' for Active; 'I' for Inactive)
REMARK    1  A    between atoms: N_9  and  C_24
REMARK    2  A    between atoms: N_10  and  C_22
REMARK    3  A    between atoms: C_14  and  C_18
REMARK    4  A    between atoms: C_14  and  C_19
REMARK    5  A    between atoms: C_16  and  C_20
REMARK    6  A    between atoms: C_21  and  C_22
REMARK    7  A    between atoms: C_22  and  C_23
REMARK    8  A    between atoms: C_23  and  C_25
REMARK    9  A    between atoms: C_23  and  C_26
REMARK   10  A    between atoms: C_23  and  C_27
REMARK   11  A    between atoms: C_24  and  C_28
REMARK   12  A    between atoms: C_24  and  C_31
REMARK   13  A    between atoms: C_28  and  C_29
REMARK   14  A    between atoms: C_30  and  C_34
REMARK                            x       y       z     vdW  Elec       q    Type
REMARK                         _______ _______ _______ _____ _____    ______ ____
ROOT
ATOM      1  O   UNL     1       0.004   0.641   0.811  0.00  0.00    +0.000 OA
ATOM      2  N   UNL     1      -0.689  -1.087  -0.568  0.00  0.00    +0.000 N 
ATOM      3  C   UNL     1      -0.401  -3.422  -0.481  0.00  0.00    +0.000 C 
ATOM      4  C   UNL     1      -1.833  -3.908  -0.329  0.00  0.00    +0.000 C 
ATOM      5  C   UNL     1      -1.403  -3.103  -1.544  0.00  0.00    +0.000 C 
ATOM      6  C   UNL     1       0.113  -2.129   0.078  0.00  0.00    +0.000 C 
ATOM      7  C   UNL     1      -1.534  -1.617  -1.642  0.00  0.00    +0.000 C 
ATOM      8  C   UNL     1      -2.082  -5.381  -0.542  0.00  0.00    +0.000 C 
ATOM      9  C   UNL     1      -2.738  -3.301   0.712  0.00  0.00    +0.000 C 
ATOM     10  C   UNL     1      -0.718   0.218  -0.094  0.00  0.00    +0.000 C 
ENDROOT
BRANCH   6  13
ATOM     11  O   UNL     1       1.875  -1.886  -1.512  0.00  0.00    +0.000 OA
ATOM     12  N   UNL     1       2.346  -1.592   0.748  0.00  0.00    +0.000 N 
ATOM     13  C   UNL     1       1.528  -1.867  -0.334  0.00  0.00    +0.000 C 
ATOM     14  H   UNL     1       1.952  -1.606   1.650  0.00  0.00    +0.000 HD
BRANCH  12  15
ATOM     15  C   UNL     1       3.752  -1.285   0.615  0.00  0.00    +0.000 C 
BRANCH  15  17
ATOM     16  N   UNL     1       5.167  -3.120   1.861  0.00  0.00    +0.000 NA
ATOM     17  C   UNL     1       4.543  -2.310   1.312  0.00  0.00    +0.000 C 
ENDBRANCH  15  17
BRANCH  15  18
ATOM     18  C   UNL     1       4.075   0.111   1.160  0.00  0.00    +0.000 C 
BRANCH  18  21
ATOM     19  O   UNL     1       3.745   2.946   1.949  0.00  0.00    +0.000 OA
ATOM     20  N   UNL     1       4.283   3.412  -0.280  0.00  0.00    +0.000 N 
ATOM     21  C   UNL     1       3.642   1.220   0.222  0.00  0.00    +0.000 C 
ATOM     22  C   UNL     1       4.428   1.244  -1.092  0.00  0.00    +0.000 C 
ATOM     23  C   UNL     1       3.896   2.605   0.786  0.00  0.00    +0.000 C 
ATOM     24  C   UNL     1       4.354   2.695  -1.523  0.00  0.00    +0.000 C 
ATOM     25  H   UNL     1       4.486   4.371  -0.192  0.00  0.00    +0.000 HD
ENDBRANCH  18  21
ENDBRANCH  15  18
ENDBRANCH  12  15
ENDBRANCH   6  13
BRANCH  10  26
ATOM     26  C   UNL     1      -1.713   1.133  -0.762  0.00  0.00    +0.000 C 
BRANCH  26  28
ATOM     27  O   UNL     1      -4.496   0.324  -0.669  0.00  0.00    +0.000 OA
ATOM     28  N   UNL     1      -2.672   1.425   0.269  0.00  0.00    +0.000 N 
ATOM     29  C   UNL     1      -3.990   0.993   0.227  0.00  0.00    +0.000 C 
ATOM     30  H   UNL     1      -2.379   1.959   1.042  0.00  0.00    +0.000 HD
BRANCH  29  34
ATOM     31  F   UNL     1      -5.265   0.385   2.131  0.00  0.00    +0.000 F 
ATOM     32  F   UNL     1      -5.831   2.213   1.085  0.00  0.00    +0.000 F 
ATOM     33  F   UNL     1      -4.016   2.164   2.289  0.00  0.00    +0.000 F 
ATOM     34  C   UNL     1      -4.772   1.437   1.428  0.00  0.00    +0.000 C 
ENDBRANCH  29  34
ENDBRANCH  26  28
BRANCH  26  35
ATOM     35  C   UNL     1      -1.066   2.388  -1.395  0.00  0.00    +0.000 C 
ATOM     36  C   UNL     1      -0.299   3.242  -0.367  0.00  0.00    +0.000 C 
ATOM     37  C   UNL     1      -2.151   3.264  -2.053  0.00  0.00    +0.000 C 
ATOM     38  C   UNL     1      -0.079   1.948  -2.497  0.00  0.00    +0.000 C 
ENDBRANCH  26  35
ENDBRANCH  10  26
TORSDOF 9
