REMARK  Name = 392622
REMARK  24 active torsions:
REMARK  status: ('A' for Active; 'I' for Inactive)
REMARK    1  A    between atoms: O_3  and  C_16
REMARK    2  A    between atoms: O_5  and  C_29
REMARK    3  A    between atoms: O_5  and  C_41
REMARK    4  A    between atoms: N_8  and  C_14
REMARK    5  A    between atoms: N_9  and  C_17
REMARK    6  A    between atoms: N_10  and  C_20
REMARK    7  A    between atoms: N_11  and  C_39
REMARK    8  A    between atoms: N_11  and  C_40
REMARK    9  A    between atoms: C_14  and  C_15
REMARK   10  A    between atoms: C_14  and  C_18
REMARK   11  A    between atoms: C_15  and  C_16
REMARK   12  A    between atoms: C_16  and  C_17
REMARK   13  A    between atoms: C_17  and  C_19
REMARK   14  A    between atoms: C_18  and  C_23
REMARK   15  A    between atoms: C_19  and  C_24
REMARK   16  A    between atoms: C_20  and  C_21
REMARK   17  A    between atoms: C_20  and  C_22
REMARK   18  A    between atoms: C_21  and  C_25
REMARK   19  A    between atoms: C_21  and  C_26
REMARK   20  A    between atoms: C_39  and  C_42
REMARK   21  A    between atoms: C_41  and  C_43
REMARK   22  A    between atoms: C_44  and  C_46
REMARK   23  A    between atoms: C_46  and  C_47
REMARK   24  A    between atoms: C_46  and  C_48
REMARK                            x       y       z     vdW  Elec       q    Type
REMARK                         _______ _______ _______ _____ _____    ______ ____
ROOT
ATOM      1  C   UNL     1      -1.651   1.879  -1.251  0.00  0.00    +0.000 C 
ENDROOT
BRANCH   1   3
ATOM      2  O   UNL     1      -0.388  -0.098   0.378  0.00  0.00    +0.000 OA
ATOM      3  N   UNL     1      -0.201   1.706  -1.097  0.00  0.00    +0.000 N 
ATOM      4  C   UNL     1       0.364   0.643  -0.315  0.00  0.00    +0.000 C 
ATOM      5  H   UNL     1       0.404   2.340  -1.545  0.00  0.00    +0.000 HD
BRANCH   4   6
ATOM      6  C   UNL     1       1.851   0.374  -0.367  0.00  0.00    +0.000 C 
BRANCH   6   8
ATOM      7  O   UNL     1       4.367   1.035   0.852  0.00  0.00    +0.000 OA
ATOM      8  N   UNL     1       2.339  -0.115   0.931  0.00  0.00    +0.000 N 
ATOM      9  N   UNL     1       4.316  -0.784   2.327  0.00  0.00    +0.000 N 
ATOM     10  C   UNL     1       3.699   0.089   1.353  0.00  0.00    +0.000 C 
ATOM     11  C   UNL     1       3.646  -2.016   2.759  0.00  0.00    +0.000 C 
ATOM     12  H   UNL     1       1.719  -0.595   1.526  0.00  0.00    +0.000 HD
BRANCH   9  13
ATOM     13  C   UNL     1       5.680  -0.502   2.802  0.00  0.00    +0.000 C 
BRANCH  13  16
ATOM     14  S   UNL     1       7.945  -1.958  -0.116  0.00  0.00    +0.000 S 
ATOM     15  N   UNL     1       8.054  -0.812   2.117  0.00  0.00    +0.000 NA
ATOM     16  C   UNL     1       6.733  -0.988   1.840  0.00  0.00    +0.000 A 
ATOM     17  C   UNL     1       8.854  -1.300   1.143  0.00  0.00    +0.000 A 
ATOM     18  C   UNL     1       6.471  -1.622   0.621  0.00  0.00    +0.000 A 
BRANCH  17  19
ATOM     19  C   UNL     1      10.353  -1.185   1.178  0.00  0.00    +0.000 C 
ATOM     20  C   UNL     1      10.828  -0.096   0.210  0.00  0.00    +0.000 C 
ATOM     21  C   UNL     1      11.019  -2.527   0.859  0.00  0.00    +0.000 C 
ENDBRANCH  17  19
ENDBRANCH  13  16
ENDBRANCH   9  13
ENDBRANCH   6   8
BRANCH   6  22
ATOM     22  C   UNL     1       2.233  -0.628  -1.492  0.00  0.00    +0.000 C 
ATOM     23  C   UNL     1       1.533  -1.991  -1.349  0.00  0.00    +0.000 C 
ATOM     24  C   UNL     1       1.977  -0.044  -2.892  0.00  0.00    +0.000 C 
ENDBRANCH   6  22
ENDBRANCH   4   6
ENDBRANCH   1   3
BRANCH   1  25
ATOM     25  C   UNL     1      -1.968   3.348  -1.612  0.00  0.00    +0.000 C 
BRANCH  25  26
ATOM     26  C   UNL     1      -1.395   4.304  -0.594  0.00  0.00    +0.000 A 
ATOM     27  C   UNL     1      -2.001   4.441   0.668  0.00  0.00    +0.000 A 
ATOM     28  C   UNL     1      -0.223   5.031  -0.875  0.00  0.00    +0.000 A 
ATOM     29  C   UNL     1      -1.445   5.295   1.628  0.00  0.00    +0.000 A 
ATOM     30  C   UNL     1       0.322   5.890   0.085  0.00  0.00    +0.000 A 
ATOM     31  C   UNL     1      -0.287   6.022   1.335  0.00  0.00    +0.000 A 
ENDBRANCH  25  26
ENDBRANCH   1  25
BRANCH   1  32
ATOM     32  C   UNL     1      -2.145   0.878  -2.324  0.00  0.00    +0.000 C 
BRANCH  32  33
ATOM     33  C   UNL     1      -3.665   0.803  -2.623  0.00  0.00    +0.000 C 
BRANCH  33  34
ATOM     34  O   UNL     1      -4.086   1.965  -3.292  0.00  0.00    +0.000 OA
ATOM     35  H   UNL     1      -3.472   2.161  -4.017  0.00  0.00    +0.000 HD
ENDBRANCH  33  34
BRANCH  33  36
ATOM     36  C   UNL     1      -4.622   0.444  -1.443  0.00  0.00    +0.000 C 
BRANCH  36  38
ATOM     37  O   UNL     1      -5.947  -1.964  -0.537  0.00  0.00    +0.000 OA
ATOM     38  N   UNL     1      -4.049  -0.595  -0.575  0.00  0.00    +0.000 N 
ATOM     39  C   UNL     1      -4.824  -1.675  -0.040  0.00  0.00    +0.000 C 
ATOM     40  H   UNL     1      -3.092  -0.547  -0.351  0.00  0.00    +0.000 HD
BRANCH  39  41
ATOM     41  O   UNL     1      -4.333  -2.385   1.061  0.00  0.00    +0.000 OA
BRANCH  41  42
ATOM     42  C   UNL     1      -5.102  -3.349   1.779  0.00  0.00    +0.000 C 
BRANCH  42  45
ATOM     43  S   UNL     1      -4.028  -5.531   0.346  0.00  0.00    +0.000 S 
ATOM     44  N   UNL     1      -6.364  -6.383  -0.019  0.00  0.00    +0.000 NA
ATOM     45  C   UNL     1      -5.276  -4.598   0.973  0.00  0.00    +0.000 A 
ATOM     46  C   UNL     1      -6.481  -5.224   0.682  0.00  0.00    +0.000 A 
ATOM     47  C   UNL     1      -5.075  -6.688  -0.288  0.00  0.00    +0.000 A 
ENDBRANCH  42  45
ENDBRANCH  41  42
ENDBRANCH  39  41
ENDBRANCH  36  38
BRANCH  36  48
ATOM     48  C   UNL     1      -5.089   1.656  -0.601  0.00  0.00    +0.000 C 
BRANCH  48  49
ATOM     49  C   UNL     1      -6.186   1.260   0.356  0.00  0.00    +0.000 A 
ATOM     50  C   UNL     1      -5.889   0.970   1.701  0.00  0.00    +0.000 A 
ATOM     51  C   UNL     1      -7.502   1.095  -0.107  0.00  0.00    +0.000 A 
ATOM     52  C   UNL     1      -6.896   0.535   2.568  0.00  0.00    +0.000 A 
ATOM     53  C   UNL     1      -8.506   0.657   0.764  0.00  0.00    +0.000 A 
ATOM     54  C   UNL     1      -8.204   0.384   2.100  0.00  0.00    +0.000 A 
ENDBRANCH  48  49
ENDBRANCH  36  48
ENDBRANCH  33  36
ENDBRANCH  32  33
ENDBRANCH   1  32
TORSDOF 19
