REMARK  Name = 131411
REMARK  13 active torsions:
REMARK  status: ('A' for Active; 'I' for Inactive)
REMARK    1  A    between atoms: S_2  and  C_16
REMARK    2  A    between atoms: S_2  and  C_22
REMARK    3  A    between atoms: O_3  and  C_15
REMARK    4  A    between atoms: O_4  and  C_19
REMARK    5  A    between atoms: O_4  and  C_23
REMARK    6  A    between atoms: N_6  and  C_17
REMARK    7  A    between atoms: N_7  and  C_13
REMARK    8  A    between atoms: N_7  and  C_20
REMARK    9  A    between atoms: N_7  and  C_21
REMARK   10  A    between atoms: C_10  and  C_16
REMARK   11  A    between atoms: C_11  and  C_19
REMARK   12  A    between atoms: C_12  and  C_13
REMARK   13  A    between atoms: C_23  and  C_26
REMARK                            x       y       z     vdW  Elec       q    Type
REMARK                         _______ _______ _______ _____ _____    ______ ____
ROOT
ATOM      1 BR   UNL     1      -4.995   3.661   0.666  0.00  0.00    +0.000 Br
ATOM      2  N   UNL     1       0.049   2.034  -0.109  0.00  0.00    +0.000 N 
ATOM      3  C   UNL     1      -1.610   0.561  -0.341  0.00  0.00    +0.000 A 
ATOM      4  C   UNL     1      -1.319   1.893  -0.040  0.00  0.00    +0.000 A 
ATOM      5  C   UNL     1       0.631   0.841  -0.441  0.00  0.00    +0.000 A 
ATOM      6  C   UNL     1      -0.370  -0.091  -0.592  0.00  0.00    +0.000 A 
ATOM      7  C   UNL     1      -2.956   0.144  -0.341  0.00  0.00    +0.000 A 
ATOM      8  C   UNL     1      -2.310   2.833   0.262  0.00  0.00    +0.000 A 
ATOM      9  C   UNL     1      -3.958   1.073  -0.041  0.00  0.00    +0.000 A 
ATOM     10  C   UNL     1       0.766   3.269   0.137  0.00  0.00    +0.000 C 
ATOM     11  C   UNL     1      -3.638   2.397   0.256  0.00  0.00    +0.000 A 
ENDROOT
BRANCH   9  12
ATOM     12  O   UNL     1      -5.263   0.663  -0.040  0.00  0.00    +0.000 OA
ATOM     13  H   UNL     1      -5.474  -0.228  -0.240  0.00  0.00    +0.000 HD
ENDBRANCH   9  12
BRANCH   6  15
ATOM     14  O   UNL     1      -0.111  -1.891  -2.109  0.00  0.00    +0.000 OA
ATOM     15  C   UNL     1      -0.145  -1.466  -0.942  0.00  0.00    +0.000 C 
BRANCH  15  16
ATOM     16  O   UNL     1       0.034  -2.303   0.141  0.00  0.00    +0.000 OA
BRANCH  16  17
ATOM     17  C   UNL     1       0.262  -3.689  -0.137  0.00  0.00    +0.000 C 
ATOM     18  C   UNL     1       0.433  -4.432   1.171  0.00  0.00    +0.000 C 
ENDBRANCH  16  17
ENDBRANCH  15  16
ENDBRANCH   6  15
BRANCH   7  19
ATOM     19  C   UNL     1      -3.348  -1.268  -0.653  0.00  0.00    +0.000 C 
BRANCH  19  20
ATOM     20  N   UNL     1      -4.343  -1.784   0.284  0.00  0.00    +0.000 N 
ATOM     21  C   UNL     1      -4.743  -3.141  -0.088  0.00  0.00    +0.000 C 
ATOM     22  C   UNL     1      -3.820  -1.762   1.650  0.00  0.00    +0.000 C 
ATOM     23  H   UNL     1      -5.165  -1.182   0.244  0.00  0.00    +0.000 HD
ENDBRANCH  19  20
ENDBRANCH   7  19
BRANCH   5  24
ATOM     24  C   UNL     1       2.096   0.700  -0.586  0.00  0.00    +0.000 C 
BRANCH  24  25
ATOM     25  S   UNL     1       2.894   0.238   0.988  0.00  0.00    +0.000 S 
BRANCH  25  26
ATOM     26  C   UNL     1       4.619   0.246   0.517  0.00  0.00    +0.000 A 
ATOM     27  C   UNL     1       4.978   0.563  -0.790  0.00  0.00    +0.000 A 
ATOM     28  C   UNL     1       5.595  -0.063   1.460  0.00  0.00    +0.000 A 
ATOM     29  C   UNL     1       6.323   0.570  -1.158  0.00  0.00    +0.000 A 
ATOM     30  C   UNL     1       6.941  -0.056   1.092  0.00  0.00    +0.000 A 
ATOM     31  C   UNL     1       7.305   0.261  -0.217  0.00  0.00    +0.000 A 
ENDBRANCH  25  26
ENDBRANCH  24  25
ENDBRANCH   5  24
TORSDOF 9
