MODEL 1
REMARK VINA RESULT:    -7.363      0.000      0.000
REMARK INTER + INTRA:         -11.148
REMARK INTER:                 -10.376
REMARK INTRA:                  -0.773
REMARK UNBOUND:                -0.773
REMARK  Name = 10173277
REMARK  8 active torsions:
REMARK  status: ('A' for Active; 'I' for Inactive)
REMARK    1  A    between atoms: O_2  and  C_16
REMARK    2  A    between atoms: O_2  and  C_17
REMARK    3  A    between atoms: N_6  and  N_7
REMARK    4  A    between atoms: N_6  and  C_15
REMARK    5  A    between atoms: C_17  and  C_18
REMARK    6  A    between atoms: C_18  and  C_19
REMARK    7  A    between atoms: C_21  and  C_22
REMARK    8  A    between atoms: C_23  and  C_31
REMARK                            x       y       z     vdW  Elec       q    Type
REMARK                         _______ _______ _______ _____ _____    ______ ____
ROOT
ATOM      1  O   UNL     1     -23.768  11.552 -25.317  0.00  0.00    +0.000 OA
ATOM      2  N   UNL     1     -24.446  10.510 -22.796  0.00  0.00    +0.000 N 
ATOM      3  N   UNL     1     -24.185   8.676 -21.277  0.00  0.00    +0.000 NA
ATOM      4  N   UNL     1     -25.445   8.622 -19.223  0.00  0.00    +0.000 NA
ATOM      5  C   UNL     1     -23.095  10.315 -23.341  0.00  0.00    +0.000 C 
ATOM      6  C   UNL     1     -25.489  10.776 -23.792  0.00  0.00    +0.000 C 
ATOM      7  C   UNL     1     -22.763  11.446 -24.308  0.00  0.00    +0.000 C 
ATOM      8  C   UNL     1     -25.029  11.881 -24.736  0.00  0.00    +0.000 C 
ATOM      9  C   UNL     1     -24.774   9.866 -21.598  0.00  0.00    +0.000 A 
ATOM     10  C   UNL     1     -25.706  10.465 -20.749  0.00  0.00    +0.000 A 
ATOM     11  C   UNL     1     -26.002   9.798 -19.577  0.00  0.00    +0.000 A 
ATOM     12  C   UNL     1     -24.558   8.123 -20.106  0.00  0.00    +0.000 A 
ENDROOT
BRANCH  11  13
ATOM     13  N   UNL     1     -26.947  10.396 -18.708  0.00  0.00    +0.000 N 
ATOM     14  H   UNL     1     -27.833   9.983 -18.589  0.00  0.00    +0.000 HD
BRANCH  13  15
ATOM     15  N   UNL     1     -26.639  11.520 -18.047  0.00  0.00    +0.000 NA
ATOM     16  C   UNL     1     -27.576  12.411 -18.090  0.00  0.00    +0.000 C 
BRANCH  16  17
ATOM     17  C   UNL     1     -27.439  13.719 -17.428  0.00  0.00    +0.000 A 
ATOM     18  C   UNL     1     -26.782  16.026 -17.507  0.00  0.00    +0.000 A 
ATOM     19  C   UNL     1     -26.911  14.787 -18.135  0.00  0.00    +0.000 A 
ATOM     20  C   UNL     1     -27.840  13.856 -16.108  0.00  0.00    +0.000 A 
ATOM     21  C   UNL     1     -27.182  16.179 -16.180  0.00  0.00    +0.000 A 
ATOM     22  C   UNL     1     -27.711  15.095 -15.480  0.00  0.00    +0.000 A 
ATOM     23  C   UNL     1     -26.217  17.186 -18.255  0.00  0.00    +0.000 C 
ENDBRANCH  16  17
ENDBRANCH  13  15
ENDBRANCH  11  13
BRANCH  12  24
ATOM     24  O   UNL     1     -23.970   6.925 -19.777  0.00  0.00    +0.000 OA
BRANCH  24  25
ATOM     25  C   UNL     1     -23.032   6.401 -20.706  0.00  0.00    +0.000 C 
BRANCH  25  26
ATOM     26  C   UNL     1     -21.698   6.156 -20.010  0.00  0.00    +0.000 C 
BRANCH  26  28
ATOM     27  N   UNL     1     -20.006   4.764 -21.043  0.00  0.00    +0.000 NA
ATOM     28  C   UNL     1     -20.562   5.987 -20.989  0.00  0.00    +0.000 A 
ATOM     29  C   UNL     1     -20.176   7.070 -21.748  0.00  0.00    +0.000 A 
ATOM     30  C   UNL     1     -19.127   6.882 -22.641  0.00  0.00    +0.000 A 
ATOM     31  C   UNL     1     -18.989   4.619 -21.921  0.00  0.00    +0.000 A 
ATOM     32  C   UNL     1     -18.517   5.636 -22.735  0.00  0.00    +0.000 A 
ENDBRANCH  26  28
ENDBRANCH  25  26
ENDBRANCH  24  25
ENDBRANCH  12  24
TORSDOF 7
ENDMDL
MODEL 2
REMARK VINA RESULT:    -7.238      1.542      9.479
REMARK INTER + INTRA:         -10.972
REMARK INTER:                 -10.286
REMARK INTRA:                  -0.686
REMARK UNBOUND:                -0.773
REMARK  Name = 10173277
REMARK  8 active torsions:
REMARK  status: ('A' for Active; 'I' for Inactive)
REMARK    1  A    between atoms: O_2  and  C_16
REMARK    2  A    between atoms: O_2  and  C_17
REMARK    3  A    between atoms: N_6  and  N_7
REMARK    4  A    between atoms: N_6  and  C_15
REMARK    5  A    between atoms: C_17  and  C_18
REMARK    6  A    between atoms: C_18  and  C_19
REMARK    7  A    between atoms: C_21  and  C_22
REMARK    8  A    between atoms: C_23  and  C_31
REMARK                            x       y       z     vdW  Elec       q    Type
REMARK                         _______ _______ _______ _____ _____    ______ ____
ROOT
ATOM      1  O   UNL     1     -23.871  11.689 -25.248  0.00  0.00    +0.000 OA
ATOM      2  N   UNL     1     -24.462  10.272 -22.894  0.00  0.00    +0.000 N 
ATOM      3  N   UNL     1     -25.739  10.245 -20.867  0.00  0.00    +0.000 NA
ATOM      4  N   UNL     1     -25.375   8.510 -19.235  0.00  0.00    +0.000 NA
ATOM      5  C   UNL     1     -25.521  10.996 -23.611  0.00  0.00    +0.000 C 
ATOM      6  C   UNL     1     -23.097  10.747 -23.150  0.00  0.00    +0.000 C 
ATOM      7  C   UNL     1     -25.161  11.101 -25.088  0.00  0.00    +0.000 C 
ATOM      8  C   UNL     1     -22.868  10.868 -24.652  0.00  0.00    +0.000 C 
ATOM      9  C   UNL     1     -24.777   9.688 -21.662  0.00  0.00    +0.000 A 
ATOM     10  C   UNL     1     -24.093   8.537 -21.271  0.00  0.00    +0.000 A 
ATOM     11  C   UNL     1     -24.433   7.992 -20.050  0.00  0.00    +0.000 A 
ATOM     12  C   UNL     1     -25.980   9.621 -19.698  0.00  0.00    +0.000 A 
ENDROOT
BRANCH  11  13
ATOM     13  N   UNL     1     -23.745   6.823 -19.642  0.00  0.00    +0.000 N 
ATOM     14  H   UNL     1     -23.761   6.550 -18.697  0.00  0.00    +0.000 HD
BRANCH  13  15
ATOM     15  N   UNL     1     -23.074   6.088 -20.540  0.00  0.00    +0.000 NA
ATOM     16  C   UNL     1     -21.918   5.692 -20.114  0.00  0.00    +0.000 C 
BRANCH  16  17
ATOM     17  C   UNL     1     -21.021   4.872 -20.946  0.00  0.00    +0.000 A 
ATOM     18  C   UNL     1     -19.001   4.651 -22.222  0.00  0.00    +0.000 A 
ATOM     19  C   UNL     1     -19.851   5.429 -21.436  0.00  0.00    +0.000 A 
ATOM     20  C   UNL     1     -21.365   3.558 -21.222  0.00  0.00    +0.000 A 
ATOM     21  C   UNL     1     -19.334   3.327 -22.509  0.00  0.00    +0.000 A 
ATOM     22  C   UNL     1     -20.515   2.780 -22.009  0.00  0.00    +0.000 A 
ATOM     23  C   UNL     1     -17.737   5.235 -22.757  0.00  0.00    +0.000 C 
ENDBRANCH  16  17
ENDBRANCH  13  15
ENDBRANCH  11  13
BRANCH  12  24
ATOM     24  O   UNL     1     -26.946  10.176 -18.893  0.00  0.00    +0.000 OA
BRANCH  24  25
ATOM     25  C   UNL     1     -26.618  11.404 -18.260  0.00  0.00    +0.000 C 
BRANCH  25  26
ATOM     26  C   UNL     1     -27.832  12.325 -18.260  0.00  0.00    +0.000 C 
BRANCH  26  28
ATOM     27  N   UNL     1     -27.017  14.601 -18.110  0.00  0.00    +0.000 NA
ATOM     28  C   UNL     1     -27.600  13.582 -17.456  0.00  0.00    +0.000 A 
ATOM     29  C   UNL     1     -27.990  13.604 -16.135  0.00  0.00    +0.000 A 
ATOM     30  C   UNL     1     -27.763  14.775 -15.422  0.00  0.00    +0.000 A 
ATOM     31  C   UNL     1     -26.812  15.723 -17.385  0.00  0.00    +0.000 A 
ATOM     32  C   UNL     1     -27.163  15.860 -16.052  0.00  0.00    +0.000 A 
ENDBRANCH  26  28
ENDBRANCH  25  26
ENDBRANCH  24  25
ENDBRANCH  12  24
TORSDOF 7
ENDMDL
MODEL 3
REMARK VINA RESULT:    -7.206      3.725     10.453
REMARK INTER + INTRA:         -10.928
REMARK INTER:                  -9.980
REMARK INTRA:                  -0.948
REMARK UNBOUND:                -0.773
REMARK  Name = 10173277
REMARK  8 active torsions:
REMARK  status: ('A' for Active; 'I' for Inactive)
REMARK    1  A    between atoms: O_2  and  C_16
REMARK    2  A    between atoms: O_2  and  C_17
REMARK    3  A    between atoms: N_6  and  N_7
REMARK    4  A    between atoms: N_6  and  C_15
REMARK    5  A    between atoms: C_17  and  C_18
REMARK    6  A    between atoms: C_18  and  C_19
REMARK    7  A    between atoms: C_21  and  C_22
REMARK    8  A    between atoms: C_23  and  C_31
REMARK                            x       y       z     vdW  Elec       q    Type
REMARK                         _______ _______ _______ _____ _____    ______ ____
ROOT
ATOM      1  O   UNL     1     -26.557   8.726 -19.571  0.00  0.00    +0.000 OA
ATOM      2  N   UNL     1     -24.197   8.145 -20.982  0.00  0.00    +0.000 N 
ATOM      3  N   UNL     1     -23.068   8.277 -23.091  0.00  0.00    +0.000 NA
ATOM      4  N   UNL     1     -20.919   7.224 -23.378  0.00  0.00    +0.000 NA
ATOM      5  C   UNL     1     -24.927   9.395 -21.239  0.00  0.00    +0.000 C 
ATOM      6  C   UNL     1     -24.997   7.062 -20.400  0.00  0.00    +0.000 C 
ATOM      7  C   UNL     1     -25.711   9.795 -19.994  0.00  0.00    +0.000 C 
ATOM      8  C   UNL     1     -25.779   7.588 -19.202  0.00  0.00    +0.000 C 
ATOM      9  C   UNL     1     -23.100   7.842 -21.797  0.00  0.00    +0.000 A 
ATOM     10  C   UNL     1     -22.053   7.093 -21.259  0.00  0.00    +0.000 A 
ATOM     11  C   UNL     1     -20.990   6.815 -22.095  0.00  0.00    +0.000 A 
ATOM     12  C   UNL     1     -21.977   7.940 -23.806  0.00  0.00    +0.000 A 
ENDROOT
BRANCH  11  13
ATOM     13  N   UNL     1     -19.921   6.055 -21.560  0.00  0.00    +0.000 N 
ATOM     14  H   UNL     1     -19.949   5.764 -20.620  0.00  0.00    +0.000 HD
BRANCH  13  15
ATOM     15  N   UNL     1     -18.873   5.730 -22.329  0.00  0.00    +0.000 NA
ATOM     16  C   UNL     1     -18.270   4.653 -21.944  0.00  0.00    +0.000 C 
BRANCH  16  17
ATOM     17  C   UNL     1     -17.093   4.123 -22.653  0.00  0.00    +0.000 A 
ATOM     18  C   UNL     1     -14.710   3.966 -22.888  0.00  0.00    +0.000 A 
ATOM     19  C   UNL     1     -15.824   4.469 -22.217  0.00  0.00    +0.000 A 
ATOM     20  C   UNL     1     -17.278   3.287 -23.743  0.00  0.00    +0.000 A 
ATOM     21  C   UNL     1     -14.880   3.124 -23.987  0.00  0.00    +0.000 A 
ATOM     22  C   UNL     1     -16.164   2.784 -24.414  0.00  0.00    +0.000 A 
ATOM     23  C   UNL     1     -13.337   4.328 -22.432  0.00  0.00    +0.000 C 
ENDBRANCH  16  17
ENDBRANCH  13  15
ENDBRANCH  11  13
BRANCH  12  24
ATOM     24  O   UNL     1     -21.938   8.375 -25.110  0.00  0.00    +0.000 OA
BRANCH  24  25
ATOM     25  C   UNL     1     -23.062   8.059 -25.919  0.00  0.00    +0.000 C 
BRANCH  25  26
ATOM     26  C   UNL     1     -23.308   9.180 -26.921  0.00  0.00    +0.000 C 
BRANCH  26  28
ATOM     27  N   UNL     1     -24.805  10.381 -25.442  0.00  0.00    +0.000 NA
ATOM     28  C   UNL     1     -23.735  10.464 -26.252  0.00  0.00    +0.000 A 
ATOM     29  C   UNL     1     -23.019  11.614 -26.507  0.00  0.00    +0.000 A 
ATOM     30  C   UNL     1     -23.437  12.779 -25.876  0.00  0.00    +0.000 A 
ATOM     31  C   UNL     1     -25.182  11.533 -24.847  0.00  0.00    +0.000 A 
ATOM     32  C   UNL     1     -24.539  12.747 -25.028  0.00  0.00    +0.000 A 
ENDBRANCH  26  28
ENDBRANCH  25  26
ENDBRANCH  24  25
ENDBRANCH  12  24
TORSDOF 7
ENDMDL
MODEL 4
REMARK VINA RESULT:    -7.131      3.559      9.438
REMARK INTER + INTRA:         -10.821
REMARK INTER:                  -9.215
REMARK INTRA:                  -1.606
REMARK UNBOUND:                -0.773
REMARK  Name = 10173277
REMARK  8 active torsions:
REMARK  status: ('A' for Active; 'I' for Inactive)
REMARK    1  A    between atoms: O_2  and  C_16
REMARK    2  A    between atoms: O_2  and  C_17
REMARK    3  A    between atoms: N_6  and  N_7
REMARK    4  A    between atoms: N_6  and  C_15
REMARK    5  A    between atoms: C_17  and  C_18
REMARK    6  A    between atoms: C_18  and  C_19
REMARK    7  A    between atoms: C_21  and  C_22
REMARK    8  A    between atoms: C_23  and  C_31
REMARK                            x       y       z     vdW  Elec       q    Type
REMARK                         _______ _______ _______ _____ _____    ______ ____
ROOT
ATOM      1  O   UNL     1     -27.307   9.255 -19.170  0.00  0.00    +0.000 OA
ATOM      2  N   UNL     1     -24.940   8.400 -20.420  0.00  0.00    +0.000 N 
ATOM      3  N   UNL     1     -23.521   8.624 -22.338  0.00  0.00    +0.000 NA
ATOM      4  N   UNL     1     -21.615   7.175 -22.604  0.00  0.00    +0.000 NA
ATOM      5  C   UNL     1     -25.356   9.807 -20.501  0.00  0.00    +0.000 C 
ATOM      6  C   UNL     1     -26.019   7.445 -20.144  0.00  0.00    +0.000 C 
ATOM      7  C   UNL     1     -26.209  10.161 -19.288  0.00  0.00    +0.000 C 
ATOM      8  C   UNL     1     -26.839   7.925 -18.952  0.00  0.00    +0.000 C 
ATOM      9  C   UNL     1     -23.825   7.997 -21.163  0.00  0.00    +0.000 A 
ATOM     10  C   UNL     1     -23.039   6.950 -20.678  0.00  0.00    +0.000 A 
ATOM     11  C   UNL     1     -21.948   6.582 -21.440  0.00  0.00    +0.000 A 
ATOM     12  C   UNL     1     -22.432   8.174 -22.990  0.00  0.00    +0.000 A 
ENDROOT
BRANCH  11  13
ATOM     13  N   UNL     1     -21.144   5.521 -20.958  0.00  0.00    +0.000 N 
ATOM     14  H   UNL     1     -21.505   4.900 -20.284  0.00  0.00    +0.000 HD
BRANCH  13  15
ATOM     15  N   UNL     1     -19.895   5.359 -21.415  0.00  0.00    +0.000 NA
ATOM     16  C   UNL     1     -19.693   4.198 -21.949  0.00  0.00    +0.000 C 
BRANCH  16  17
ATOM     17  C   UNL     1     -18.387   3.817 -22.514  0.00  0.00    +0.000 A 
ATOM     18  C   UNL     1     -16.019   4.166 -22.682  0.00  0.00    +0.000 A 
ATOM     19  C   UNL     1     -17.255   4.528 -22.148  0.00  0.00    +0.000 A 
ATOM     20  C   UNL     1     -18.316   2.756 -23.402  0.00  0.00    +0.000 A 
ATOM     21  C   UNL     1     -15.931   3.099 -23.577  0.00  0.00    +0.000 A 
ATOM     22  C   UNL     1     -17.080   2.394 -23.936  0.00  0.00    +0.000 A 
ATOM     23  C   UNL     1     -14.790   4.919 -22.297  0.00  0.00    +0.000 C 
ENDBRANCH  16  17
ENDBRANCH  13  15
ENDBRANCH  11  13
BRANCH  12  24
ATOM     24  O   UNL     1     -22.121   8.801 -24.173  0.00  0.00    +0.000 OA
BRANCH  24  25
ATOM     25  C   UNL     1     -22.483   8.121 -25.367  0.00  0.00    +0.000 C 
BRANCH  25  26
ATOM     26  C   UNL     1     -21.379   8.281 -26.406  0.00  0.00    +0.000 C 
BRANCH  26  28
ATOM     27  N   UNL     1     -20.190   6.252 -25.825  0.00  0.00    +0.000 NA
ATOM     28  C   UNL     1     -20.104   7.582 -26.001  0.00  0.00    +0.000 A 
ATOM     29  C   UNL     1     -18.960   8.333 -25.840  0.00  0.00    +0.000 A 
ATOM     30  C   UNL     1     -17.802   7.660 -25.467  0.00  0.00    +0.000 A 
ATOM     31  C   UNL     1     -19.045   5.632 -25.462  0.00  0.00    +0.000 A 
ATOM     32  C   UNL     1     -17.837   6.284 -25.272  0.00  0.00    +0.000 A 
ENDBRANCH  26  28
ENDBRANCH  25  26
ENDBRANCH  24  25
ENDBRANCH  12  24
TORSDOF 7
ENDMDL
MODEL 5
REMARK VINA RESULT:    -7.128      2.440      3.517
REMARK INTER + INTRA:         -10.817
REMARK INTER:                 -10.171
REMARK INTRA:                  -0.646
REMARK UNBOUND:                -0.773
REMARK  Name = 10173277
REMARK  8 active torsions:
REMARK  status: ('A' for Active; 'I' for Inactive)
REMARK    1  A    between atoms: O_2  and  C_16
REMARK    2  A    between atoms: O_2  and  C_17
REMARK    3  A    between atoms: N_6  and  N_7
REMARK    4  A    between atoms: N_6  and  C_15
REMARK    5  A    between atoms: C_17  and  C_18
REMARK    6  A    between atoms: C_18  and  C_19
REMARK    7  A    between atoms: C_21  and  C_22
REMARK    8  A    between atoms: C_23  and  C_31
REMARK                            x       y       z     vdW  Elec       q    Type
REMARK                         _______ _______ _______ _____ _____    ______ ____
ROOT
ATOM      1  O   UNL     1     -28.908  13.612 -24.351  0.00  0.00    +0.000 OA
ATOM      2  N   UNL     1     -27.911  12.692 -21.890  0.00  0.00    +0.000 N 
ATOM      3  N   UNL     1     -26.613  11.009 -20.785  0.00  0.00    +0.000 NA
ATOM      4  N   UNL     1     -26.478  10.975 -18.379  0.00  0.00    +0.000 NA
ATOM      5  C   UNL     1     -27.091  12.597 -23.105  0.00  0.00    +0.000 C 
ATOM      6  C   UNL     1     -29.358  12.776 -22.118  0.00  0.00    +0.000 C 
ATOM      7  C   UNL     1     -27.506  13.683 -24.091  0.00  0.00    +0.000 C 
ATOM      8  C   UNL     1     -29.653  13.852 -23.158  0.00  0.00    +0.000 C 
ATOM      9  C   UNL     1     -27.424  12.106 -20.716  0.00  0.00    +0.000 A 
ATOM     10  C   UNL     1     -27.782  12.666 -19.489  0.00  0.00    +0.000 A 
ATOM     11  C   UNL     1     -27.281  12.059 -18.355  0.00  0.00    +0.000 A 
ATOM     12  C   UNL     1     -26.188  10.508 -19.608  0.00  0.00    +0.000 A 
ENDROOT
BRANCH  11  13
ATOM     13  N   UNL     1     -27.638  12.618 -17.104  0.00  0.00    +0.000 N 
ATOM     14  H   UNL     1     -27.954  12.033 -16.378  0.00  0.00    +0.000 HD
BRANCH  13  15
ATOM     15  N   UNL     1     -27.548  13.940 -16.905  0.00  0.00    +0.000 NA
ATOM     16  C   UNL     1     -27.599  14.274 -15.657  0.00  0.00    +0.000 C 
BRANCH  16  17
ATOM     17  C   UNL     1     -27.516  15.679 -15.222  0.00  0.00    +0.000 A 
ATOM     18  C   UNL     1     -27.197  17.998 -15.749  0.00  0.00    +0.000 A 
ATOM     19  C   UNL     1     -27.274  16.668 -16.161  0.00  0.00    +0.000 A 
ATOM     20  C   UNL     1     -27.683  15.984 -13.880  0.00  0.00    +0.000 A 
ATOM     21  C   UNL     1     -27.363  18.321 -14.402  0.00  0.00    +0.000 A 
ATOM     22  C   UNL     1     -27.606  17.314 -13.468  0.00  0.00    +0.000 A 
ATOM     23  C   UNL     1     -26.938  19.075 -16.748  0.00  0.00    +0.000 C 
ENDBRANCH  16  17
ENDBRANCH  13  15
ENDBRANCH  11  13
BRANCH  12  24
ATOM     24  O   UNL     1     -25.372   9.403 -19.670  0.00  0.00    +0.000 OA
BRANCH  24  25
ATOM     25  C   UNL     1     -24.706   9.173 -20.903  0.00  0.00    +0.000 C 
BRANCH  25  26
ATOM     26  C   UNL     1     -24.504   7.676 -21.108  0.00  0.00    +0.000 C 
BRANCH  26  28
ATOM     27  N   UNL     1     -22.223   7.834 -21.908  0.00  0.00    +0.000 NA
ATOM     28  C   UNL     1     -23.053   7.273 -21.010  0.00  0.00    +0.000 A 
ATOM     29  C   UNL     1     -22.678   6.379 -20.032  0.00  0.00    +0.000 A 
ATOM     30  C   UNL     1     -21.335   6.029 -19.968  0.00  0.00    +0.000 A 
ATOM     31  C   UNL     1     -20.925   7.470 -21.816  0.00  0.00    +0.000 A 
ATOM     32  C   UNL     1     -20.435   6.580 -20.874  0.00  0.00    +0.000 A 
ENDBRANCH  26  28
ENDBRANCH  25  26
ENDBRANCH  24  25
ENDBRANCH  12  24
TORSDOF 7
ENDMDL
MODEL 6
REMARK VINA RESULT:    -7.116      2.749      7.839
REMARK INTER + INTRA:         -10.801
REMARK INTER:                  -8.963
REMARK INTRA:                  -1.838
REMARK UNBOUND:                -0.773
REMARK  Name = 10173277
REMARK  8 active torsions:
REMARK  status: ('A' for Active; 'I' for Inactive)
REMARK    1  A    between atoms: O_2  and  C_16
REMARK    2  A    between atoms: O_2  and  C_17
REMARK    3  A    between atoms: N_6  and  N_7
REMARK    4  A    between atoms: N_6  and  C_15
REMARK    5  A    between atoms: C_17  and  C_18
REMARK    6  A    between atoms: C_18  and  C_19
REMARK    7  A    between atoms: C_21  and  C_22
REMARK    8  A    between atoms: C_23  and  C_31
REMARK                            x       y       z     vdW  Elec       q    Type
REMARK                         _______ _______ _______ _____ _____    ______ ____
ROOT
ATOM      1  O   UNL     1     -27.478  16.455 -15.927  0.00  0.00    +0.000 OA
ATOM      2  N   UNL     1     -27.401  14.229 -17.641  0.00  0.00    +0.000 N 
ATOM      3  N   UNL     1     -27.614  13.462 -19.901  0.00  0.00    +0.000 NA
ATOM      4  N   UNL     1     -27.560  11.102 -20.385  0.00  0.00    +0.000 NA
ATOM      5  C   UNL     1     -26.857  15.522 -18.079  0.00  0.00    +0.000 C 
ATOM      6  C   UNL     1     -28.397  14.302 -16.566  0.00  0.00    +0.000 C 
ATOM      7  C   UNL     1     -26.408  16.327 -16.865  0.00  0.00    +0.000 C 
ATOM      8  C   UNL     1     -27.867  15.174 -15.433  0.00  0.00    +0.000 C 
ATOM      9  C   UNL     1     -27.456  13.186 -18.573  0.00  0.00    +0.000 A 
ATOM     10  C   UNL     1     -27.346  11.873 -18.115  0.00  0.00    +0.000 A 
ATOM     11  C   UNL     1     -27.405  10.873 -19.065  0.00  0.00    +0.000 A 
ATOM     12  C   UNL     1     -27.658  12.400 -20.729  0.00  0.00    +0.000 A 
ENDROOT
BRANCH  11  13
ATOM     13  N   UNL     1     -27.294   9.535 -18.612  0.00  0.00    +0.000 N 
ATOM     14  H   UNL     1     -27.565   9.305 -17.694  0.00  0.00    +0.000 HD
BRANCH  13  15
ATOM     15  N   UNL     1     -26.821   8.583 -19.428  0.00  0.00    +0.000 NA
ATOM     16  C   UNL     1     -25.571   8.317 -19.233  0.00  0.00    +0.000 C 
BRANCH  16  17
ATOM     17  C   UNL     1     -24.858   7.301 -20.026  0.00  0.00    +0.000 A 
ATOM     18  C   UNL     1     -22.839   6.106 -20.533  0.00  0.00    +0.000 A 
ATOM     19  C   UNL     1     -23.514   7.070 -19.783  0.00  0.00    +0.000 A 
ATOM     20  C   UNL     1     -25.546   6.595 -21.000  0.00  0.00    +0.000 A 
ATOM     21  C   UNL     1     -23.518   5.388 -21.517  0.00  0.00    +0.000 A 
ATOM     22  C   UNL     1     -24.872   5.632 -21.750  0.00  0.00    +0.000 A 
ATOM     23  C   UNL     1     -21.392   5.845 -20.284  0.00  0.00    +0.000 C 
ENDBRANCH  16  17
ENDBRANCH  13  15
ENDBRANCH  11  13
BRANCH  12  24
ATOM     24  O   UNL     1     -27.817  12.671 -22.067  0.00  0.00    +0.000 OA
BRANCH  24  25
ATOM     25  C   UNL     1     -27.488  11.627 -22.972  0.00  0.00    +0.000 C 
BRANCH  25  26
ATOM     26  C   UNL     1     -26.261  12.018 -23.787  0.00  0.00    +0.000 C 
BRANCH  26  28
ATOM     27  N   UNL     1     -24.681  10.572 -24.918  0.00  0.00    +0.000 NA
ATOM     28  C   UNL     1     -25.177  10.969 -23.733  0.00  0.00    +0.000 A 
ATOM     29  C   UNL     1     -24.775  10.495 -22.504  0.00  0.00    +0.000 A 
ATOM     30  C   UNL     1     -23.775   9.529 -22.489  0.00  0.00    +0.000 A 
ATOM     31  C   UNL     1     -23.712   9.632 -24.864  0.00  0.00    +0.000 A 
ATOM     32  C   UNL     1     -23.228   9.084 -23.687  0.00  0.00    +0.000 A 
ENDBRANCH  26  28
ENDBRANCH  25  26
ENDBRANCH  24  25
ENDBRANCH  12  24
TORSDOF 7
ENDMDL
MODEL 7
REMARK VINA RESULT:    -6.945      2.760      7.414
REMARK INTER + INTRA:         -10.559
REMARK INTER:                  -8.668
REMARK INTRA:                  -1.891
REMARK UNBOUND:                -0.773
REMARK  Name = 10173277
REMARK  8 active torsions:
REMARK  status: ('A' for Active; 'I' for Inactive)
REMARK    1  A    between atoms: O_2  and  C_16
REMARK    2  A    between atoms: O_2  and  C_17
REMARK    3  A    between atoms: N_6  and  N_7
REMARK    4  A    between atoms: N_6  and  C_15
REMARK    5  A    between atoms: C_17  and  C_18
REMARK    6  A    between atoms: C_18  and  C_19
REMARK    7  A    between atoms: C_21  and  C_22
REMARK    8  A    between atoms: C_23  and  C_31
REMARK                            x       y       z     vdW  Elec       q    Type
REMARK                         _______ _______ _______ _____ _____    ______ ____
ROOT
ATOM      1  O   UNL     1     -29.069  14.346 -16.315  0.00  0.00    +0.000 OA
ATOM      2  N   UNL     1     -28.026  12.684 -18.327  0.00  0.00    +0.000 N 
ATOM      3  N   UNL     1     -27.194  10.501 -18.857  0.00  0.00    +0.000 NA
ATOM      4  N   UNL     1     -26.268  10.059 -21.038  0.00  0.00    +0.000 NA
ATOM      5  C   UNL     1     -28.949  12.141 -17.320  0.00  0.00    +0.000 C 
ATOM      6  C   UNL     1     -27.312  13.901 -17.928  0.00  0.00    +0.000 C 
ATOM      7  C   UNL     1     -29.852  13.254 -16.799  0.00  0.00    +0.000 C 
ATOM      8  C   UNL     1     -28.301  14.919 -17.372  0.00  0.00    +0.000 C 
ATOM      9  C   UNL     1     -27.435  11.792 -19.230  0.00  0.00    +0.000 A 
ATOM     10  C   UNL     1     -27.105  12.252 -20.505  0.00  0.00    +0.000 A 
ATOM     11  C   UNL     1     -26.524  11.342 -21.366  0.00  0.00    +0.000 A 
ATOM     12  C   UNL     1     -26.622   9.710 -19.786  0.00  0.00    +0.000 A 
ENDROOT
BRANCH  11  13
ATOM     13  N   UNL     1     -26.184  11.797 -22.663  0.00  0.00    +0.000 N 
ATOM     14  H   UNL     1     -26.299  12.747 -22.895  0.00  0.00    +0.000 HD
BRANCH  13  15
ATOM     15  N   UNL     1     -25.706  10.939 -23.575  0.00  0.00    +0.000 NA
ATOM     16  C   UNL     1     -24.656  11.379 -24.190  0.00  0.00    +0.000 C 
BRANCH  16  17
ATOM     17  C   UNL     1     -23.975  10.590 -25.230  0.00  0.00    +0.000 A 
ATOM     18  C   UNL     1     -22.009  10.124 -26.526  0.00  0.00    +0.000 A 
ATOM     19  C   UNL     1     -22.654  10.872 -25.541  0.00  0.00    +0.000 A 
ATOM     20  C   UNL     1     -24.669   9.581 -25.879  0.00  0.00    +0.000 A 
ATOM     21  C   UNL     1     -22.694   9.105 -27.188  0.00  0.00    +0.000 A 
ATOM     22  C   UNL     1     -24.024   8.833 -26.864  0.00  0.00    +0.000 A 
ATOM     23  C   UNL     1     -20.588  10.414 -26.872  0.00  0.00    +0.000 C 
ENDBRANCH  16  17
ENDBRANCH  13  15
ENDBRANCH  11  13
BRANCH  12  24
ATOM     24  O   UNL     1     -26.375   8.409 -19.417  0.00  0.00    +0.000 OA
BRANCH  24  25
ATOM     25  C   UNL     1     -25.022   7.979 -19.466  0.00  0.00    +0.000 C 
BRANCH  25  26
ATOM     26  C   UNL     1     -24.901   6.757 -20.368  0.00  0.00    +0.000 C 
BRANCH  26  28
ATOM     27  N   UNL     1     -24.119   6.120 -22.570  0.00  0.00    +0.000 NA
ATOM     28  C   UNL     1     -24.029   7.016 -21.573  0.00  0.00    +0.000 A 
ATOM     29  C   UNL     1     -23.215   8.128 -21.573  0.00  0.00    +0.000 A 
ATOM     30  C   UNL     1     -22.424   8.339 -22.697  0.00  0.00    +0.000 A 
ATOM     31  C   UNL     1     -23.336   6.358 -23.646  0.00  0.00    +0.000 A 
ATOM     32  C   UNL     1     -22.480   7.441 -23.758  0.00  0.00    +0.000 A 
ENDBRANCH  26  28
ENDBRANCH  25  26
ENDBRANCH  24  25
ENDBRANCH  12  24
TORSDOF 7
ENDMDL
MODEL 8
REMARK VINA RESULT:    -6.933      5.059      8.385
REMARK INTER + INTRA:         -10.543
REMARK INTER:                  -9.381
REMARK INTRA:                  -1.163
REMARK UNBOUND:                -0.773
REMARK  Name = 10173277
REMARK  8 active torsions:
REMARK  status: ('A' for Active; 'I' for Inactive)
REMARK    1  A    between atoms: O_2  and  C_16
REMARK    2  A    between atoms: O_2  and  C_17
REMARK    3  A    between atoms: N_6  and  N_7
REMARK    4  A    between atoms: N_6  and  C_15
REMARK    5  A    between atoms: C_17  and  C_18
REMARK    6  A    between atoms: C_18  and  C_19
REMARK    7  A    between atoms: C_21  and  C_22
REMARK    8  A    between atoms: C_23  and  C_31
REMARK                            x       y       z     vdW  Elec       q    Type
REMARK                         _______ _______ _______ _____ _____    ______ ____
ROOT
ATOM      1  O   UNL     1     -14.105   3.828 -23.347  0.00  0.00    +0.000 OA
ATOM      2  N   UNL     1     -16.897   3.793 -23.027  0.00  0.00    +0.000 N 
ATOM      3  N   UNL     1     -19.009   3.462 -24.108  0.00  0.00    +0.000 NA
ATOM      4  N   UNL     1     -21.057   3.879 -22.907  0.00  0.00    +0.000 NA
ATOM      5  C   UNL     1     -16.238   2.817 -23.906  0.00  0.00    +0.000 C 
ATOM      6  C   UNL     1     -16.139   5.025 -22.783  0.00  0.00    +0.000 C 
ATOM      7  C   UNL     1     -14.806   2.588 -23.436  0.00  0.00    +0.000 C 
ATOM      8  C   UNL     1     -14.711   4.678 -22.376  0.00  0.00    +0.000 C 
ATOM      9  C   UNL     1     -18.296   3.818 -22.999  0.00  0.00    +0.000 A 
ATOM     10  C   UNL     1     -18.935   4.211 -21.822  0.00  0.00    +0.000 A 
ATOM     11  C   UNL     1     -20.315   4.222 -21.835  0.00  0.00    +0.000 A 
ATOM     12  C   UNL     1     -20.351   3.514 -23.995  0.00  0.00    +0.000 A 
ENDROOT
BRANCH  11  13
ATOM     13  N   UNL     1     -20.975   4.619 -20.646  0.00  0.00    +0.000 N 
ATOM     14  H   UNL     1     -20.559   4.442 -19.772  0.00  0.00    +0.000 HD
BRANCH  13  15
ATOM     15  N   UNL     1     -22.163   5.236 -20.708  0.00  0.00    +0.000 NA
ATOM     16  C   UNL     1     -22.093   6.506 -20.475  0.00  0.00    +0.000 C 
BRANCH  16  17
ATOM     17  C   UNL     1     -23.287   7.369 -20.494  0.00  0.00    +0.000 A 
ATOM     18  C   UNL     1     -24.579   9.098 -21.541  0.00  0.00    +0.000 A 
ATOM     19  C   UNL     1     -23.448   8.282 -21.523  0.00  0.00    +0.000 A 
ATOM     20  C   UNL     1     -24.225   7.251 -19.481  0.00  0.00    +0.000 A 
ATOM     21  C   UNL     1     -25.532   8.991 -20.529  0.00  0.00    +0.000 A 
ATOM     22  C   UNL     1     -25.356   8.067 -19.499  0.00  0.00    +0.000 A 
ATOM     23  C   UNL     1     -24.769  10.086 -22.643  0.00  0.00    +0.000 C 
ENDBRANCH  16  17
ENDBRANCH  13  15
ENDBRANCH  11  13
BRANCH  12  24
ATOM     24  O   UNL     1     -21.075   3.157 -25.108  0.00  0.00    +0.000 OA
BRANCH  24  25
ATOM     25  C   UNL     1     -20.701   3.769 -26.334  0.00  0.00    +0.000 C 
BRANCH  25  26
ATOM     26  C   UNL     1     -21.245   5.192 -26.387  0.00  0.00    +0.000 C 
BRANCH  26  28
ATOM     27  N   UNL     1     -20.538   7.455 -25.890  0.00  0.00    +0.000 NA
ATOM     28  C   UNL     1     -20.153   6.229 -26.286  0.00  0.00    +0.000 A 
ATOM     29  C   UNL     1     -18.862   5.863 -26.598  0.00  0.00    +0.000 A 
ATOM     30  C   UNL     1     -17.880   6.841 -26.494  0.00  0.00    +0.000 A 
ATOM     31  C   UNL     1     -19.556   8.379 -25.801  0.00  0.00    +0.000 A 
ATOM     32  C   UNL     1     -18.225   8.126 -26.089  0.00  0.00    +0.000 A 
ENDBRANCH  26  28
ENDBRANCH  25  26
ENDBRANCH  24  25
ENDBRANCH  12  24
TORSDOF 7
ENDMDL
MODEL 9
REMARK VINA RESULT:    -6.914      1.652      1.983
REMARK INTER + INTRA:         -10.516
REMARK INTER:                  -9.787
REMARK INTRA:                  -0.729
REMARK UNBOUND:                -0.773
REMARK  Name = 10173277
REMARK  8 active torsions:
REMARK  status: ('A' for Active; 'I' for Inactive)
REMARK    1  A    between atoms: O_2  and  C_16
REMARK    2  A    between atoms: O_2  and  C_17
REMARK    3  A    between atoms: N_6  and  N_7
REMARK    4  A    between atoms: N_6  and  C_15
REMARK    5  A    between atoms: C_17  and  C_18
REMARK    6  A    between atoms: C_18  and  C_19
REMARK    7  A    between atoms: C_21  and  C_22
REMARK    8  A    between atoms: C_23  and  C_31
REMARK                            x       y       z     vdW  Elec       q    Type
REMARK                         _______ _______ _______ _____ _____    ______ ____
ROOT
ATOM      1  O   UNL     1     -26.086  12.332 -25.148  0.00  0.00    +0.000 OA
ATOM      2  N   UNL     1     -26.385  11.199 -22.593  0.00  0.00    +0.000 N 
ATOM      3  N   UNL     1     -26.189   9.207 -21.276  0.00  0.00    +0.000 NA
ATOM      4  N   UNL     1     -26.934   9.199 -18.984  0.00  0.00    +0.000 NA
ATOM      5  C   UNL     1     -25.267  10.796 -23.458  0.00  0.00    +0.000 C 
ATOM      6  C   UNL     1     -27.544  11.763 -23.294  0.00  0.00    +0.000 C 
ATOM      7  C   UNL     1     -24.927  11.930 -24.418  0.00  0.00    +0.000 C 
ATOM      8  C   UNL     1     -27.082  12.844 -24.264  0.00  0.00    +0.000 C 
ATOM      9  C   UNL     1     -26.565  10.516 -21.385  0.00  0.00    +0.000 A 
ATOM     10  C   UNL     1     -27.130  11.199 -20.308  0.00  0.00    +0.000 A 
ATOM     11  C   UNL     1     -27.290  10.491 -19.133  0.00  0.00    +0.000 A 
ATOM     12  C   UNL     1     -26.398   8.626 -20.079  0.00  0.00    +0.000 A 
ENDROOT
BRANCH  11  13
ATOM     13  N   UNL     1     -27.863  11.174 -18.033  0.00  0.00    +0.000 N 
ATOM     14  H   UNL     1     -28.683  10.825 -17.613  0.00  0.00    +0.000 HD
BRANCH  13  15
ATOM     15  N   UNL     1     -27.294  12.291 -17.562  0.00  0.00    +0.000 NA
ATOM     16  C   UNL     1     -28.132  13.085 -16.977  0.00  0.00    +0.000 C 
BRANCH  16  17
ATOM     17  C   UNL     1     -27.710  14.368 -16.389  0.00  0.00    +0.000 A 
ATOM     18  C   UNL     1     -26.938  16.623 -16.667  0.00  0.00    +0.000 A 
ATOM     19  C   UNL     1     -27.336  15.408 -17.225  0.00  0.00    +0.000 A 
ATOM     20  C   UNL     1     -27.694  14.509 -15.011  0.00  0.00    +0.000 A 
ATOM     21  C   UNL     1     -26.917  16.780 -15.282  0.00  0.00    +0.000 A 
ATOM     22  C   UNL     1     -27.295  15.724 -14.453  0.00  0.00    +0.000 A 
ATOM     23  C   UNL     1     -26.534  17.753 -17.553  0.00  0.00    +0.000 C 
ENDBRANCH  16  17
ENDBRANCH  13  15
ENDBRANCH  11  13
BRANCH  12  24
ATOM     24  O   UNL     1     -26.022   7.308 -19.962  0.00  0.00    +0.000 OA
BRANCH  24  25
ATOM     25  C   UNL     1     -24.926   6.886 -20.761  0.00  0.00    +0.000 C 
BRANCH  25  26
ATOM     26  C   UNL     1     -23.647   6.903 -19.933  0.00  0.00    +0.000 C 
BRANCH  26  28
ATOM     27  N   UNL     1     -22.761   5.675 -21.822  0.00  0.00    +0.000 NA
ATOM     28  C   UNL     1     -22.546   6.083 -20.560  0.00  0.00    +0.000 A 
ATOM     29  C   UNL     1     -21.417   5.812 -19.817  0.00  0.00    +0.000 A 
ATOM     30  C   UNL     1     -20.422   5.056 -20.424  0.00  0.00    +0.000 A 
ATOM     31  C   UNL     1     -21.771   4.941 -22.379  0.00  0.00    +0.000 A 
ATOM     32  C   UNL     1     -20.594   4.608 -21.729  0.00  0.00    +0.000 A 
ENDBRANCH  26  28
ENDBRANCH  25  26
ENDBRANCH  24  25
ENDBRANCH  12  24
TORSDOF 7
ENDMDL
