MODEL 1
REMARK VINA RESULT:    -9.366      0.000      0.000
REMARK INTER + INTRA:         -10.764
REMARK INTER:                 -10.461
REMARK INTRA:                  -0.302
REMARK UNBOUND:                -0.302
REMARK  Name = 10206
REMARK  6 active torsions:
REMARK  status: ('A' for Active; 'I' for Inactive)
REMARK    1  A    between atoms: O_4  and  C_32
REMARK    2  A    between atoms: O_4  and  C_44
REMARK    3  A    between atoms: O_6  and  C_43
REMARK    4  A    between atoms: O_6  and  C_45
REMARK    5  A    between atoms: N_7  and  C_25
REMARK    6  A    between atoms: N_8  and  C_30
REMARK                            x       y       z     vdW  Elec       q    Type
REMARK                         _______ _______ _______ _____ _____    ______ ____
ROOT
ATOM      1  O   UNL     1     -21.997   7.114 -23.184  0.00  0.00    +0.000 OA
ATOM      2  O   UNL     1     -24.058   4.966 -23.308  0.00  0.00    +0.000 OA
ATOM      3  O   UNL     1     -23.541   2.741 -24.054  0.00  0.00    +0.000 OA
ATOM      4  O   UNL     1     -24.741   9.531 -26.804  0.00  0.00    +0.000 OA
ATOM      5  N   UNL     1     -18.045   6.155 -24.336  0.00  0.00    +0.000 N 
ATOM      6  N   UNL     1     -25.834  10.404 -19.806  0.00  0.00    +0.000 N 
ATOM      7  C   UNL     1     -19.456   6.613 -24.394  0.00  0.00    +0.000 C 
ATOM      8  C   UNL     1     -20.503   5.526 -24.144  0.00  0.00    +0.000 A 
ATOM      9  C   UNL     1     -25.374   9.999 -21.154  0.00  0.00    +0.000 C 
ATOM     10  C   UNL     1     -20.209   4.196 -24.538  0.00  0.00    +0.000 A 
ATOM     11  C   UNL     1     -17.844   4.720 -24.117  0.00  0.00    +0.000 C 
ATOM     12  C   UNL     1     -18.803   3.879 -24.961  0.00  0.00    +0.000 C 
ATOM     13  C   UNL     1     -24.444   8.789 -21.057  0.00  0.00    +0.000 A 
ATOM     14  C   UNL     1     -19.623   7.230 -25.816  0.00  0.00    +0.000 C 
ATOM     15  C   UNL     1     -26.461   9.295 -19.088  0.00  0.00    +0.000 C 
ATOM     16  C   UNL     1     -24.497   7.929 -19.945  0.00  0.00    +0.000 A 
ATOM     17  C   UNL     1     -25.406   8.229 -18.781  0.00  0.00    +0.000 C 
ATOM     18  C   UNL     1     -21.776   5.828 -23.614  0.00  0.00    +0.000 A 
ATOM     19  C   UNL     1     -26.515   9.706 -22.179  0.00  0.00    +0.000 C 
ATOM     20  C   UNL     1     -21.199   3.207 -24.524  0.00  0.00    +0.000 A 
ATOM     21  C   UNL     1     -22.745   4.839 -23.652  0.00  0.00    +0.000 A 
ATOM     22  C   UNL     1     -23.555   8.493 -22.100  0.00  0.00    +0.000 A 
ATOM     23  C   UNL     1     -17.245   6.947 -23.405  0.00  0.00    +0.000 C 
ATOM     24  C   UNL     1     -22.772   7.337 -22.070  0.00  0.00    +0.000 A 
ATOM     25  C   UNL     1     -22.459   3.566 -24.095  0.00  0.00    +0.000 A 
ATOM     26  C   UNL     1     -20.962   7.876 -26.095  0.00  0.00    +0.000 A 
ATOM     27  C   UNL     1     -23.643   6.817 -19.883  0.00  0.00    +0.000 A 
ATOM     28  C   UNL     1     -26.656  11.607 -19.793  0.00  0.00    +0.000 C 
ATOM     29  C   UNL     1     -26.257  10.331 -23.533  0.00  0.00    +0.000 A 
ATOM     30  C   UNL     1     -22.780   6.523 -20.938  0.00  0.00    +0.000 A 
ATOM     31  C   UNL     1     -21.250   9.159 -25.613  0.00  0.00    +0.000 A 
ATOM     32  C   UNL     1     -21.943   7.187 -26.825  0.00  0.00    +0.000 A 
ATOM     33  C   UNL     1     -24.551   3.635 -23.553  0.00  0.00    +0.000 C 
ATOM     34  C   UNL     1     -25.675   9.593 -24.572  0.00  0.00    +0.000 A 
ATOM     35  C   UNL     1     -26.564  11.683 -23.752  0.00  0.00    +0.000 A 
ATOM     36  C   UNL     1     -25.357  10.218 -25.783  0.00  0.00    +0.000 A 
ATOM     37  C   UNL     1     -22.502   9.736 -25.837  0.00  0.00    +0.000 A 
ATOM     38  C   UNL     1     -23.197   7.759 -27.045  0.00  0.00    +0.000 A 
ATOM     39  C   UNL     1     -23.486   9.024 -26.533  0.00  0.00    +0.000 A 
ATOM     40  C   UNL     1     -26.297  12.285 -24.983  0.00  0.00    +0.000 A 
ATOM     41  C   UNL     1     -25.695  11.553 -26.003  0.00  0.00    +0.000 A 
ATOM     42  H   UNL     1     -17.708   6.318 -25.285  0.00  0.00    +0.000 HD
ATOM     43  H   UNL     1     -24.987  10.659 -19.297  0.00  0.00    +0.000 HD
ENDROOT
BRANCH  30  44
ATOM     44  O   UNL     1     -21.970   5.437 -20.799  0.00  0.00    +0.000 OA
ATOM     45  C   UNL     1     -20.844   5.573 -19.936  0.00  0.00    +0.000 C 
ENDBRANCH  30  44
BRANCH  41  46
ATOM     46  O   UNL     1     -25.448  12.151 -27.200  0.00  0.00    +0.000 OA
ATOM     47  C   UNL     1     -26.298  13.236 -27.569  0.00  0.00    +0.000 C 
ENDBRANCH  41  46
TORSDOF 2
ENDMDL
MODEL 2
REMARK VINA RESULT:    -8.940      3.470      6.501
REMARK INTER + INTRA:         -10.287
REMARK INTER:                  -9.976
REMARK INTRA:                  -0.312
REMARK UNBOUND:                -0.302
REMARK  Name = 10206
REMARK  6 active torsions:
REMARK  status: ('A' for Active; 'I' for Inactive)
REMARK    1  A    between atoms: O_4  and  C_32
REMARK    2  A    between atoms: O_4  and  C_44
REMARK    3  A    between atoms: O_6  and  C_43
REMARK    4  A    between atoms: O_6  and  C_45
REMARK    5  A    between atoms: N_7  and  C_25
REMARK    6  A    between atoms: N_8  and  C_30
REMARK                            x       y       z     vdW  Elec       q    Type
REMARK                         _______ _______ _______ _____ _____    ______ ____
ROOT
ATOM      1  O   UNL     1     -20.632   5.025 -24.827  0.00  0.00    +0.000 OA
ATOM      2  O   UNL     1     -20.286   7.767 -25.937  0.00  0.00    +0.000 OA
ATOM      3  O   UNL     1     -18.175   8.914 -25.875  0.00  0.00    +0.000 OA
ATOM      4  O   UNL     1     -23.828   7.148 -21.399  0.00  0.00    +0.000 OA
ATOM      5  N   UNL     1     -17.262   3.120 -23.129  0.00  0.00    +0.000 N 
ATOM      6  N   UNL     1     -25.954   4.668 -27.744  0.00  0.00    +0.000 N 
ATOM      7  C   UNL     1     -18.502   3.924 -23.269  0.00  0.00    +0.000 C 
ATOM      8  C   UNL     1     -18.364   5.190 -24.117  0.00  0.00    +0.000 A 
ATOM      9  C   UNL     1     -25.205   5.094 -26.540  0.00  0.00    +0.000 C 
ATOM     10  C   UNL     1     -17.118   5.866 -24.130  0.00  0.00    +0.000 A 
ATOM     11  C   UNL     1     -16.061   3.676 -23.758  0.00  0.00    +0.000 C 
ATOM     12  C   UNL     1     -15.936   5.180 -23.506  0.00  0.00    +0.000 C 
ATOM     13  C   UNL     1     -23.699   5.042 -26.804  0.00  0.00    +0.000 A 
ATOM     14  C   UNL     1     -18.925   4.274 -21.811  0.00  0.00    +0.000 C 
ATOM     15  C   UNL     1     -25.582   5.452 -28.922  0.00  0.00    +0.000 C 
ATOM     16  C   UNL     1     -23.197   5.110 -28.116  0.00  0.00    +0.000 A 
ATOM     17  C   UNL     1     -24.131   5.145 -29.298  0.00  0.00    +0.000 C 
ATOM     18  C   UNL     1     -19.461   5.743 -24.811  0.00  0.00    +0.000 A 
ATOM     19  C   UNL     1     -25.594   6.501 -25.985  0.00  0.00    +0.000 C 
ATOM     20  C   UNL     1     -16.992   7.130 -24.716  0.00  0.00    +0.000 A 
ATOM     21  C   UNL     1     -19.317   7.014 -25.345  0.00  0.00    +0.000 A 
ATOM     22  C   UNL     1     -22.795   4.971 -25.736  0.00  0.00    +0.000 A 
ATOM     23  C   UNL     1     -17.461   1.725 -23.515  0.00  0.00    +0.000 C 
ATOM     24  C   UNL     1     -21.416   5.023 -25.957  0.00  0.00    +0.000 A 
ATOM     25  C   UNL     1     -18.114   7.683 -25.296  0.00  0.00    +0.000 A 
ATOM     26  C   UNL     1     -20.239   5.010 -21.669  0.00  0.00    +0.000 A 
ATOM     27  C   UNL     1     -21.811   5.074 -28.334  0.00  0.00    +0.000 A 
ATOM     28  C   UNL     1     -27.397   4.602 -27.556  0.00  0.00    +0.000 C 
ATOM     29  C   UNL     1     -25.760   6.509 -24.480  0.00  0.00    +0.000 A 
ATOM     30  C   UNL     1     -20.923   5.025 -27.260  0.00  0.00    +0.000 A 
ATOM     31  C   UNL     1     -21.455   4.321 -21.750  0.00  0.00    +0.000 A 
ATOM     32  C   UNL     1     -20.256   6.400 -21.476  0.00  0.00    +0.000 A 
ATOM     33  C   UNL     1     -19.555   8.960 -26.280  0.00  0.00    +0.000 C 
ATOM     34  C   UNL     1     -24.712   6.905 -23.638  0.00  0.00    +0.000 A 
ATOM     35  C   UNL     1     -26.965   6.076 -23.905  0.00  0.00    +0.000 A 
ATOM     36  C   UNL     1     -24.856   6.811 -22.250  0.00  0.00    +0.000 A 
ATOM     37  C   UNL     1     -22.668   5.009 -21.660  0.00  0.00    +0.000 A 
ATOM     38  C   UNL     1     -21.466   7.091 -21.393  0.00  0.00    +0.000 A 
ATOM     39  C   UNL     1     -22.672   6.400 -21.507  0.00  0.00    +0.000 A 
ATOM     40  C   UNL     1     -27.120   6.040 -22.518  0.00  0.00    +0.000 A 
ATOM     41  C   UNL     1     -26.067   6.410 -21.686  0.00  0.00    +0.000 A 
ATOM     42  H   UNL     1     -17.069   3.163 -22.128  0.00  0.00    +0.000 HD
ATOM     43  H   UNL     1     -25.667   3.704 -27.915  0.00  0.00    +0.000 HD
ENDROOT
BRANCH  30  44
ATOM     44  O   UNL     1     -19.593   4.976 -27.551  0.00  0.00    +0.000 OA
ATOM     45  C   UNL     1     -19.068   3.721 -27.977  0.00  0.00    +0.000 C 
ENDBRANCH  30  44
BRANCH  41  46
ATOM     46  O   UNL     1     -26.237   6.379 -20.337  0.00  0.00    +0.000 OA
ATOM     47  C   UNL     1     -27.186   7.287 -19.782  0.00  0.00    +0.000 C 
ENDBRANCH  41  46
TORSDOF 2
ENDMDL
MODEL 3
REMARK VINA RESULT:    -8.380      2.308      3.101
REMARK INTER + INTRA:          -9.663
REMARK INTER:                  -9.334
REMARK INTRA:                  -0.328
REMARK UNBOUND:                -0.302
REMARK  Name = 10206
REMARK  6 active torsions:
REMARK  status: ('A' for Active; 'I' for Inactive)
REMARK    1  A    between atoms: O_4  and  C_32
REMARK    2  A    between atoms: O_4  and  C_44
REMARK    3  A    between atoms: O_6  and  C_43
REMARK    4  A    between atoms: O_6  and  C_45
REMARK    5  A    between atoms: N_7  and  C_25
REMARK    6  A    between atoms: N_8  and  C_30
REMARK                            x       y       z     vdW  Elec       q    Type
REMARK                         _______ _______ _______ _____ _____    ______ ____
ROOT
ATOM      1  O   UNL     1     -21.205   6.259 -23.830  0.00  0.00    +0.000 OA
ATOM      2  O   UNL     1     -22.453   3.948 -22.423  0.00  0.00    +0.000 OA
ATOM      3  O   UNL     1     -21.192   2.002 -21.794  0.00  0.00    +0.000 OA
ATOM      4  O   UNL     1     -24.263   5.098 -27.801  0.00  0.00    +0.000 OA
ATOM      5  N   UNL     1     -17.071   6.071 -24.694  0.00  0.00    +0.000 N 
ATOM      6  N   UNL     1     -26.161   9.537 -22.546  0.00  0.00    +0.000 N 
ATOM      7  C   UNL     1     -18.545   5.948 -24.831  0.00  0.00    +0.000 C 
ATOM      8  C   UNL     1     -19.207   4.962 -23.866  0.00  0.00    +0.000 A 
ATOM      9  C   UNL     1     -25.485   8.581 -23.451  0.00  0.00    +0.000 C 
ATOM     10  C   UNL     1     -18.472   3.825 -23.447  0.00  0.00    +0.000 A 
ATOM     11  C   UNL     1     -16.442   5.188 -23.709  0.00  0.00    +0.000 C 
ATOM     12  C   UNL     1     -17.007   3.769 -23.779  0.00  0.00    +0.000 C 
ATOM     13  C   UNL     1     -24.228   8.016 -22.787  0.00  0.00    +0.000 A 
ATOM     14  C   UNL     1     -18.781   5.522 -26.311  0.00  0.00    +0.000 C 
ATOM     15  C   UNL     1     -26.458   8.937 -21.245  0.00  0.00    +0.000 C 
ATOM     16  C   UNL     1     -24.096   8.011 -21.387  0.00  0.00    +0.000 A 
ATOM     17  C   UNL     1     -25.148   8.643 -20.511  0.00  0.00    +0.000 C 
ATOM     18  C   UNL     1     -20.549   5.111 -23.456  0.00  0.00    +0.000 A 
ATOM     19  C   UNL     1     -26.382   7.409 -23.963  0.00  0.00    +0.000 C 
ATOM     20  C   UNL     1     -19.091   2.790 -22.737  0.00  0.00    +0.000 A 
ATOM     21  C   UNL     1     -21.145   4.052 -22.790  0.00  0.00    +0.000 A 
ATOM     22  C   UNL     1     -23.207   7.453 -23.565  0.00  0.00    +0.000 A 
ATOM     23  C   UNL     1     -16.647   7.457 -24.507  0.00  0.00    +0.000 C 
ATOM     24  C   UNL     1     -22.101   6.845 -22.967  0.00  0.00    +0.000 A 
ATOM     25  C   UNL     1     -20.430   2.927 -22.443  0.00  0.00    +0.000 A 
ATOM     26  C   UNL     1     -20.227   5.432 -26.743  0.00  0.00    +0.000 A 
ATOM     27  C   UNL     1     -22.940   7.476 -20.797  0.00  0.00    +0.000 A 
ATOM     28  C   UNL     1     -27.322  10.193 -23.131  0.00  0.00    +0.000 C 
ATOM     29  C   UNL     1     -26.224   7.159 -25.447  0.00  0.00    +0.000 A 
ATOM     30  C   UNL     1     -21.943   6.899 -21.583  0.00  0.00    +0.000 A 
ATOM     31  C   UNL     1     -20.949   6.588 -27.065  0.00  0.00    +0.000 A 
ATOM     32  C   UNL     1     -20.871   4.187 -26.807  0.00  0.00    +0.000 A 
ATOM     33  C   UNL     1     -22.473   2.658 -21.785  0.00  0.00    +0.000 C 
ATOM     34  C   UNL     1     -25.352   6.173 -25.927  0.00  0.00    +0.000 A 
ATOM     35  C   UNL     1     -26.928   7.947 -26.371  0.00  0.00    +0.000 A 
ATOM     36  C   UNL     1     -25.150   6.025 -27.303  0.00  0.00    +0.000 A 
ATOM     37  C   UNL     1     -22.297   6.505 -27.424  0.00  0.00    +0.000 A 
ATOM     38  C   UNL     1     -22.220   4.102 -27.159  0.00  0.00    +0.000 A 
ATOM     39  C   UNL     1     -22.939   5.262 -27.446  0.00  0.00    +0.000 A 
ATOM     40  C   UNL     1     -26.764   7.755 -27.744  0.00  0.00    +0.000 A 
ATOM     41  C   UNL     1     -25.877   6.791 -28.214  0.00  0.00    +0.000 A 
ATOM     42  H   UNL     1     -16.726   5.738 -25.594  0.00  0.00    +0.000 HD
ATOM     43  H   UNL     1     -25.486  10.286 -22.391  0.00  0.00    +0.000 HD
ENDROOT
BRANCH  30  44
ATOM     44  O   UNL     1     -20.844   6.416 -20.941  0.00  0.00    +0.000 OA
ATOM     45  C   UNL     1     -21.056   5.760 -19.694  0.00  0.00    +0.000 C 
ENDBRANCH  30  44
BRANCH  41  46
ATOM     46  O   UNL     1     -25.735   6.610 -29.555  0.00  0.00    +0.000 OA
ATOM     47  C   UNL     1     -26.929   6.575 -30.333  0.00  0.00    +0.000 C 
ENDBRANCH  41  46
TORSDOF 2
ENDMDL
MODEL 4
REMARK VINA RESULT:    -8.198      2.790      4.313
REMARK INTER + INTRA:          -9.459
REMARK INTER:                  -9.105
REMARK INTRA:                  -0.354
REMARK UNBOUND:                -0.302
REMARK  Name = 10206
REMARK  6 active torsions:
REMARK  status: ('A' for Active; 'I' for Inactive)
REMARK    1  A    between atoms: O_4  and  C_32
REMARK    2  A    between atoms: O_4  and  C_44
REMARK    3  A    between atoms: O_6  and  C_43
REMARK    4  A    between atoms: O_6  and  C_45
REMARK    5  A    between atoms: N_7  and  C_25
REMARK    6  A    between atoms: N_8  and  C_30
REMARK                            x       y       z     vdW  Elec       q    Type
REMARK                         _______ _______ _______ _____ _____    ______ ____
ROOT
ATOM      1  O   UNL     1     -21.436   5.829 -24.428  0.00  0.00    +0.000 OA
ATOM      2  O   UNL     1     -22.798   3.729 -22.812  0.00  0.00    +0.000 OA
ATOM      3  O   UNL     1     -21.572   2.061 -21.591  0.00  0.00    +0.000 OA
ATOM      4  O   UNL     1     -23.636   3.657 -28.541  0.00  0.00    +0.000 OA
ATOM      5  N   UNL     1     -17.210   5.852 -24.515  0.00  0.00    +0.000 N 
ATOM      6  N   UNL     1     -26.713   8.833 -24.711  0.00  0.00    +0.000 N 
ATOM      7  C   UNL     1     -18.623   5.573 -24.873  0.00  0.00    +0.000 C 
ATOM      8  C   UNL     1     -19.399   4.735 -23.855  0.00  0.00    +0.000 A 
ATOM      9  C   UNL     1     -25.830   7.786 -25.272  0.00  0.00    +0.000 C 
ATOM     10  C   UNL     1     -18.694   3.770 -23.092  0.00  0.00    +0.000 A 
ATOM     11  C   UNL     1     -16.727   5.234 -23.277  0.00  0.00    +0.000 C 
ATOM     12  C   UNL     1     -17.193   3.783 -23.150  0.00  0.00    +0.000 C 
ATOM     13  C   UNL     1     -24.690   7.475 -24.301  0.00  0.00    +0.000 A 
ATOM     14  C   UNL     1     -18.557   4.851 -26.253  0.00  0.00    +0.000 C 
ATOM     15  C   UNL     1     -27.214   8.470 -23.386  0.00  0.00    +0.000 C 
ATOM     16  C   UNL     1     -24.821   7.750 -22.928  0.00  0.00    +0.000 A 
ATOM     17  C   UNL     1     -26.050   8.442 -22.394  0.00  0.00    +0.000 C 
ATOM     18  C   UNL     1     -20.800   4.838 -23.720  0.00  0.00    +0.000 A 
ATOM     19  C   UNL     1     -26.552   6.462 -25.678  0.00  0.00    +0.000 C 
ATOM     20  C   UNL     1     -19.378   2.839 -22.302  0.00  0.00    +0.000 A 
ATOM     21  C   UNL     1     -21.451   3.877 -22.963  0.00  0.00    +0.000 A 
ATOM     22  C   UNL     1     -23.514   6.867 -24.760  0.00  0.00    +0.000 A 
ATOM     23  C   UNL     1     -16.903   7.280 -24.546  0.00  0.00    +0.000 C 
ATOM     24  C   UNL     1     -22.507   6.487 -23.870  0.00  0.00    +0.000 A 
ATOM     25  C   UNL     1     -20.754   2.909 -22.275  0.00  0.00    +0.000 A 
ATOM     26  C   UNL     1     -19.891   4.549 -26.899  0.00  0.00    +0.000 A 
ATOM     27  C   UNL     1     -23.767   7.445 -22.052  0.00  0.00    +0.000 A 
ATOM     28  C   UNL     1     -27.780   9.258 -25.608  0.00  0.00    +0.000 C 
ATOM     29  C   UNL     1     -26.108   5.946 -27.030  0.00  0.00    +0.000 A 
ATOM     30  C   UNL     1     -22.612   6.820 -22.521  0.00  0.00    +0.000 A 
ATOM     31  C   UNL     1     -20.602   5.552 -27.569  0.00  0.00    +0.000 A 
ATOM     32  C   UNL     1     -20.444   3.263 -26.815  0.00  0.00    +0.000 A 
ATOM     33  C   UNL     1     -22.865   2.588 -21.936  0.00  0.00    +0.000 C 
ATOM     34  C   UNL     1     -25.110   4.969 -27.141  0.00  0.00    +0.000 A 
ATOM     35  C   UNL     1     -26.670   6.476 -28.202  0.00  0.00    +0.000 A 
ATOM     36  C   UNL     1     -24.649   4.579 -28.402  0.00  0.00    +0.000 A 
ATOM     37  C   UNL     1     -21.853   5.281 -28.129  0.00  0.00    +0.000 A 
ATOM     38  C   UNL     1     -21.697   2.990 -27.367  0.00  0.00    +0.000 A 
ATOM     39  C   UNL     1     -22.412   4.004 -28.005  0.00  0.00    +0.000 A 
ATOM     40  C   UNL     1     -26.244   6.040 -29.458  0.00  0.00    +0.000 A 
ATOM     41  C   UNL     1     -25.234   5.087 -29.562  0.00  0.00    +0.000 A 
ATOM     42  H   UNL     1     -16.685   5.384 -25.255  0.00  0.00    +0.000 HD
ATOM     43  H   UNL     1     -26.121   9.656 -24.600  0.00  0.00    +0.000 HD
ENDROOT
BRANCH  30  44
ATOM     44  O   UNL     1     -21.626   6.569 -21.615  0.00  0.00    +0.000 OA
ATOM     45  C   UNL     1     -22.030   6.297 -20.275  0.00  0.00    +0.000 C 
ENDBRANCH  30  44
BRANCH  41  46
ATOM     46  O   UNL     1     -24.836   4.665 -30.792  0.00  0.00    +0.000 OA
ATOM     47  C   UNL     1     -25.171   5.496 -31.901  0.00  0.00    +0.000 C 
ENDBRANCH  41  46
TORSDOF 2
ENDMDL
MODEL 5
REMARK VINA RESULT:    -7.867      2.748      7.580
REMARK INTER + INTRA:          -9.089
REMARK INTER:                  -8.785
REMARK INTRA:                  -0.303
REMARK UNBOUND:                -0.302
REMARK  Name = 10206
REMARK  6 active torsions:
REMARK  status: ('A' for Active; 'I' for Inactive)
REMARK    1  A    between atoms: O_4  and  C_32
REMARK    2  A    between atoms: O_4  and  C_44
REMARK    3  A    between atoms: O_6  and  C_43
REMARK    4  A    between atoms: O_6  and  C_45
REMARK    5  A    between atoms: N_7  and  C_25
REMARK    6  A    between atoms: N_8  and  C_30
REMARK                            x       y       z     vdW  Elec       q    Type
REMARK                         _______ _______ _______ _____ _____    ______ ____
ROOT
ATOM      1  O   UNL     1     -25.049   7.845 -24.774  0.00  0.00    +0.000 OA
ATOM      2  O   UNL     1     -22.709   9.688 -24.855  0.00  0.00    +0.000 OA
ATOM      3  O   UNL     1     -22.872  11.922 -25.724  0.00  0.00    +0.000 OA
ATOM      4  O   UNL     1     -22.456   4.904 -28.105  0.00  0.00    +0.000 OA
ATOM      5  N   UNL     1     -28.759   9.266 -26.217  0.00  0.00    +0.000 N 
ATOM      6  N   UNL     1     -21.902   4.244 -21.020  0.00  0.00    +0.000 N 
ATOM      7  C   UNL     1     -27.423   8.621 -26.165  0.00  0.00    +0.000 C 
ATOM      8  C   UNL     1     -26.252   9.568 -25.893  0.00  0.00    +0.000 A 
ATOM      9  C   UNL     1     -22.222   4.639 -22.411  0.00  0.00    +0.000 C 
ATOM     10  C   UNL     1     -26.338  10.904 -26.361  0.00  0.00    +0.000 A 
ATOM     11  C   UNL     1     -28.774  10.724 -26.072  0.00  0.00    +0.000 C 
ATOM     12  C   UNL     1     -27.661  11.386 -26.886  0.00  0.00    +0.000 C 
ATOM     13  C   UNL     1     -22.982   5.966 -22.425  0.00  0.00    +0.000 A 
ATOM     14  C   UNL     1     -27.259   7.916 -27.546  0.00  0.00    +0.000 C 
ATOM     15  C   UNL     1     -21.172   5.294 -20.311  0.00  0.00    +0.000 C 
ATOM     16  C   UNL     1     -22.877   6.866 -21.349  0.00  0.00    +0.000 A 
ATOM     17  C   UNL     1     -22.086   6.505 -20.117  0.00  0.00    +0.000 C 
ATOM     18  C   UNL     1     -25.066   9.126 -25.270  0.00  0.00    +0.000 A 
ATOM     19  C   UNL     1     -20.994   4.724 -23.372  0.00  0.00    +0.000 C 
ATOM     20  C   UNL     1     -25.225  11.751 -26.325  0.00  0.00    +0.000 A 
ATOM     21  C   UNL     1     -23.970   9.973 -25.287  0.00  0.00    +0.000 A 
ATOM     22  C   UNL     1     -23.760   6.326 -23.534  0.00  0.00    +0.000 A 
ATOM     23  C   UNL     1     -29.713   8.636 -25.308  0.00  0.00    +0.000 C 
ATOM     24  C   UNL     1     -24.378   7.576 -23.603  0.00  0.00    +0.000 A 
ATOM     25  C   UNL     1     -24.053  11.249 -25.801  0.00  0.00    +0.000 A 
ATOM     26  C   UNL     1     -26.007   7.084 -27.711  0.00  0.00    +0.000 A 
ATOM     27  C   UNL     1     -23.572   8.084 -21.389  0.00  0.00    +0.000 A 
ATOM     28  C   UNL     1     -21.254   2.944 -20.904  0.00  0.00    +0.000 C 
ATOM     29  C   UNL     1     -21.257   4.072 -24.713  0.00  0.00    +0.000 A 
ATOM     30  C   UNL     1     -24.324   8.438 -22.509  0.00  0.00    +0.000 A 
ATOM     31  C   UNL     1     -25.926   5.800 -27.158  0.00  0.00    +0.000 A 
ATOM     32  C   UNL     1     -24.901   7.597 -28.404  0.00  0.00    +0.000 A 
ATOM     33  C   UNL     1     -22.025  10.927 -25.123  0.00  0.00    +0.000 C 
ATOM     34  C   UNL     1     -21.671   4.829 -25.817  0.00  0.00    +0.000 A 
ATOM     35  C   UNL     1     -21.125   2.682 -24.855  0.00  0.00    +0.000 A 
ATOM     36  C   UNL     1     -22.000   4.192 -27.018  0.00  0.00    +0.000 A 
ATOM     37  C   UNL     1     -24.754   5.049 -27.277  0.00  0.00    +0.000 A 
ATOM     38  C   UNL     1     -23.725   6.852 -28.519  0.00  0.00    +0.000 A 
ATOM     39  C   UNL     1     -23.643   5.587 -27.937  0.00  0.00    +0.000 A 
ATOM     40  C   UNL     1     -21.400   2.061 -26.074  0.00  0.00    +0.000 A 
ATOM     41  C   UNL     1     -21.836   2.814 -27.160  0.00  0.00    +0.000 A 
ATOM     42  H   UNL     1     -29.059   9.103 -27.178  0.00  0.00    +0.000 HD
ATOM     43  H   UNL     1     -22.803   4.130 -20.557  0.00  0.00    +0.000 HD
ENDROOT
BRANCH  30  44
ATOM     44  O   UNL     1     -24.984   9.628 -22.468  0.00  0.00    +0.000 OA
ATOM     45  C   UNL     1     -25.029  10.303 -21.213  0.00  0.00    +0.000 C 
ENDBRANCH  30  44
BRANCH  41  46
ATOM     46  O   UNL     1     -22.092   2.195 -28.344  0.00  0.00    +0.000 OA
ATOM     47  C   UNL     1     -23.390   1.629 -28.512  0.00  0.00    +0.000 C 
ENDBRANCH  41  46
TORSDOF 2
ENDMDL
MODEL 6
REMARK VINA RESULT:    -7.652      4.635      7.001
REMARK INTER + INTRA:          -8.849
REMARK INTER:                  -8.541
REMARK INTRA:                  -0.308
REMARK UNBOUND:                -0.302
REMARK  Name = 10206
REMARK  6 active torsions:
REMARK  status: ('A' for Active; 'I' for Inactive)
REMARK    1  A    between atoms: O_4  and  C_32
REMARK    2  A    between atoms: O_4  and  C_44
REMARK    3  A    between atoms: O_6  and  C_43
REMARK    4  A    between atoms: O_6  and  C_45
REMARK    5  A    between atoms: N_7  and  C_25
REMARK    6  A    between atoms: N_8  and  C_30
REMARK                            x       y       z     vdW  Elec       q    Type
REMARK                         _______ _______ _______ _____ _____    ______ ____
ROOT
ATOM      1  O   UNL     1     -26.020   7.949 -25.731  0.00  0.00    +0.000 OA
ATOM      2  O   UNL     1     -27.132   5.583 -24.303  0.00  0.00    +0.000 OA
ATOM      3  O   UNL     1     -26.195   4.778 -22.242  0.00  0.00    +0.000 OA
ATOM      4  O   UNL     1     -24.814   4.701 -29.535  0.00  0.00    +0.000 OA
ATOM      5  N   UNL     1     -22.708   9.939 -24.017  0.00  0.00    +0.000 N 
ATOM      6  N   UNL     1     -31.071   8.107 -29.110  0.00  0.00    +0.000 N 
ATOM      7  C   UNL     1     -23.517   9.006 -24.841  0.00  0.00    +0.000 C 
ATOM      8  C   UNL     1     -24.332   7.980 -24.051  0.00  0.00    +0.000 A 
ATOM      9  C   UNL     1     -29.713   7.555 -28.903  0.00  0.00    +0.000 C 
ATOM     10  C   UNL     1     -23.822   7.517 -22.812  0.00  0.00    +0.000 A 
ATOM     11  C   UNL     1     -22.742   9.713 -22.570  0.00  0.00    +0.000 C 
ATOM     12  C   UNL     1     -22.634   8.227 -22.227  0.00  0.00    +0.000 C 
ATOM     13  C   UNL     1     -29.213   7.887 -27.495  0.00  0.00    +0.000 A 
ATOM     14  C   UNL     1     -22.491   8.298 -25.778  0.00  0.00    +0.000 C 
ATOM     15  C   UNL     1     -32.006   7.651 -28.082  0.00  0.00    +0.000 C 
ATOM     16  C   UNL     1     -30.121   8.170 -26.459  0.00  0.00    +0.000 A 
ATOM     17  C   UNL     1     -31.602   8.245 -26.731  0.00  0.00    +0.000 C 
ATOM     18  C   UNL     1     -25.526   7.427 -24.561  0.00  0.00    +0.000 A 
ATOM     19  C   UNL     1     -29.577   6.021 -29.163  0.00  0.00    +0.000 C 
ATOM     20  C   UNL     1     -24.416   6.437 -22.149  0.00  0.00    +0.000 A 
ATOM     21  C   UNL     1     -26.065   6.332 -23.905  0.00  0.00    +0.000 A 
ATOM     22  C   UNL     1     -27.842   7.867 -27.207  0.00  0.00    +0.000 A 
ATOM     23  C   UNL     1     -22.980  11.338 -24.339  0.00  0.00    +0.000 C 
ATOM     24  C   UNL     1     -27.378   8.070 -25.905  0.00  0.00    +0.000 A 
ATOM     25  C   UNL     1     -25.522   5.856 -22.732  0.00  0.00    +0.000 A 
ATOM     26  C   UNL     1     -23.082   7.361 -26.806  0.00  0.00    +0.000 A 
ATOM     27  C   UNL     1     -29.642   8.459 -25.173  0.00  0.00    +0.000 A 
ATOM     28  C   UNL     1     -31.593   7.915 -30.457  0.00  0.00    +0.000 C 
ATOM     29  C   UNL     1     -28.348   5.674 -29.976  0.00  0.00    +0.000 A 
ATOM     30  C   UNL     1     -28.275   8.414 -24.896  0.00  0.00    +0.000 A 
ATOM     31  C   UNL     1     -23.659   7.862 -27.980  0.00  0.00    +0.000 A 
ATOM     32  C   UNL     1     -23.081   5.975 -26.586  0.00  0.00    +0.000 A 
ATOM     33  C   UNL     1     -27.214   4.612 -23.243  0.00  0.00    +0.000 C 
ATOM     34  C   UNL     1     -27.158   5.272 -29.356  0.00  0.00    +0.000 A 
ATOM     35  C   UNL     1     -28.377   5.791 -31.375  0.00  0.00    +0.000 A 
ATOM     36  C   UNL     1     -26.010   5.050 -30.122  0.00  0.00    +0.000 A 
ATOM     37  C   UNL     1     -24.241   6.996 -28.910  0.00  0.00    +0.000 A 
ATOM     38  C   UNL     1     -23.668   5.108 -27.510  0.00  0.00    +0.000 A 
ATOM     39  C   UNL     1     -24.268   5.619 -28.661  0.00  0.00    +0.000 A 
ATOM     40  C   UNL     1     -27.242   5.512 -32.137  0.00  0.00    +0.000 A 
ATOM     41  C   UNL     1     -26.055   5.138 -31.513  0.00  0.00    +0.000 A 
ATOM     42  H   UNL     1     -21.749   9.717 -24.288  0.00  0.00    +0.000 HD
ATOM     43  H   UNL     1     -30.972   9.117 -29.009  0.00  0.00    +0.000 HD
ENDROOT
BRANCH  30  44
ATOM     44  O   UNL     1     -27.885   8.722 -23.628  0.00  0.00    +0.000 OA
ATOM     45  C   UNL     1     -27.868  10.102 -23.270  0.00  0.00    +0.000 C 
ENDBRANCH  30  44
BRANCH  41  46
ATOM     46  O   UNL     1     -24.959   4.860 -32.270  0.00  0.00    +0.000 OA
ATOM     47  C   UNL     1     -24.965   5.332 -33.615  0.00  0.00    +0.000 C 
ENDBRANCH  41  46
TORSDOF 2
ENDMDL
MODEL 7
REMARK VINA RESULT:    -7.623      1.786      2.242
REMARK INTER + INTRA:          -8.817
REMARK INTER:                  -8.521
REMARK INTRA:                  -0.296
REMARK UNBOUND:                -0.302
REMARK  Name = 10206
REMARK  6 active torsions:
REMARK  status: ('A' for Active; 'I' for Inactive)
REMARK    1  A    between atoms: O_4  and  C_32
REMARK    2  A    between atoms: O_4  and  C_44
REMARK    3  A    between atoms: O_6  and  C_43
REMARK    4  A    between atoms: O_6  and  C_45
REMARK    5  A    between atoms: N_7  and  C_25
REMARK    6  A    between atoms: N_8  and  C_30
REMARK                            x       y       z     vdW  Elec       q    Type
REMARK                         _______ _______ _______ _____ _____    ______ ____
ROOT
ATOM      1  O   UNL     1     -23.697   6.944 -24.338  0.00  0.00    +0.000 OA
ATOM      2  O   UNL     1     -25.945   5.039 -23.898  0.00  0.00    +0.000 OA
ATOM      3  O   UNL     1     -25.986   2.856 -24.903  0.00  0.00    +0.000 OA
ATOM      4  O   UNL     1     -27.128   9.969 -26.694  0.00  0.00    +0.000 OA
ATOM      5  N   UNL     1     -20.484   5.706 -26.790  0.00  0.00    +0.000 N 
ATOM      6  N   UNL     1     -25.785  10.261 -19.691  0.00  0.00    +0.000 N 
ATOM      7  C   UNL     1     -21.768   6.309 -26.350  0.00  0.00    +0.000 C 
ATOM      8  C   UNL     1     -22.809   5.315 -25.831  0.00  0.00    +0.000 A 
ATOM      9  C   UNL     1     -25.841   9.945 -21.136  0.00  0.00    +0.000 C 
ATOM     10  C   UNL     1     -22.831   4.007 -26.378  0.00  0.00    +0.000 A 
ATOM     11  C   UNL     1     -20.409   4.244 -26.735  0.00  0.00    +0.000 C 
ATOM     12  C   UNL     1     -21.688   3.591 -27.261  0.00  0.00    +0.000 C 
ATOM     13  C   UNL     1     -25.092   8.642 -21.425  0.00  0.00    +0.000 A 
ATOM     14  C   UNL     1     -22.304   7.076 -27.596  0.00  0.00    +0.000 C 
ATOM     15  C   UNL     1     -26.284   9.156 -18.873  0.00  0.00    +0.000 C 
ATOM     16  C   UNL     1     -24.893   7.688 -20.412  0.00  0.00    +0.000 A 
ATOM     17  C   UNL     1     -25.332   7.964 -18.996  0.00  0.00    +0.000 C 
ATOM     18  C   UNL     1     -23.793   5.690 -24.892  0.00  0.00    +0.000 A 
ATOM     19  C   UNL     1     -27.279   9.871 -21.740  0.00  0.00    +0.000 C 
ATOM     20  C   UNL     1     -23.881   3.127 -26.095  0.00  0.00    +0.000 A 
ATOM     21  C   UNL     1     -24.841   4.813 -24.665  0.00  0.00    +0.000 A 
ATOM     22  C   UNL     1     -24.632   8.362 -22.719  0.00  0.00    +0.000 A 
ATOM     23  C   UNL     1     -19.332   6.318 -26.133  0.00  0.00    +0.000 C 
ATOM     24  C   UNL     1     -24.036   7.135 -23.019  0.00  0.00    +0.000 A 
ATOM     25  C   UNL     1     -24.878   3.568 -25.252  0.00  0.00    +0.000 A 
ATOM     26  C   UNL     1     -23.567   7.878 -27.378  0.00  0.00    +0.000 A 
ATOM     27  C   UNL     1     -24.215   6.494 -20.702  0.00  0.00    +0.000 A 
ATOM     28  C   UNL     1     -26.398  11.533 -19.335  0.00  0.00    +0.000 C 
ATOM     29  C   UNL     1     -27.393  10.596 -23.064  0.00  0.00    +0.000 A 
ATOM     30  C   UNL     1     -23.783   6.219 -21.999  0.00  0.00    +0.000 A 
ATOM     31  C   UNL     1     -23.518   9.130 -26.752  0.00  0.00    +0.000 A 
ATOM     32  C   UNL     1     -24.810   7.367 -27.780  0.00  0.00    +0.000 A 
ATOM     33  C   UNL     1     -26.657   3.796 -24.044  0.00  0.00    +0.000 C 
ATOM     34  C   UNL     1     -27.276   9.908 -24.279  0.00  0.00    +0.000 A 
ATOM     35  C   UNL     1     -27.579  11.987 -23.089  0.00  0.00    +0.000 A 
ATOM     36  C   UNL     1     -27.289  10.613 -25.487  0.00  0.00    +0.000 A 
ATOM     37  C   UNL     1     -24.691   9.851 -26.514  0.00  0.00    +0.000 A 
ATOM     38  C   UNL     1     -25.985   8.082 -27.537  0.00  0.00    +0.000 A 
ATOM     39  C   UNL     1     -25.929   9.314 -26.885  0.00  0.00    +0.000 A 
ATOM     40  C   UNL     1     -27.648  12.676 -24.301  0.00  0.00    +0.000 A 
ATOM     41  C   UNL     1     -27.505  11.990 -25.504  0.00  0.00    +0.000 A 
ATOM     42  H   UNL     1     -20.453   5.926 -27.786  0.00  0.00    +0.000 HD
ATOM     43  H   UNL     1     -24.794  10.377 -19.477  0.00  0.00    +0.000 HD
ENDROOT
BRANCH  30  44
ATOM     44  O   UNL     1     -23.118   5.048 -22.201  0.00  0.00    +0.000 OA
ATOM     45  C   UNL     1     -21.752   4.998 -21.796  0.00  0.00    +0.000 C 
ENDBRANCH  30  44
BRANCH  41  46
ATOM     46  O   UNL     1     -27.584  12.674 -26.677  0.00  0.00    +0.000 OA
ATOM     47  C   UNL     1     -26.356  13.118 -27.251  0.00  0.00    +0.000 C 
ENDBRANCH  41  46
TORSDOF 2
ENDMDL
MODEL 8
REMARK VINA RESULT:    -7.387      1.751      2.216
REMARK INTER + INTRA:          -8.553
REMARK INTER:                  -8.203
REMARK INTRA:                  -0.350
REMARK UNBOUND:                -0.302
REMARK  Name = 10206
REMARK  6 active torsions:
REMARK  status: ('A' for Active; 'I' for Inactive)
REMARK    1  A    between atoms: O_4  and  C_32
REMARK    2  A    between atoms: O_4  and  C_44
REMARK    3  A    between atoms: O_6  and  C_43
REMARK    4  A    between atoms: O_6  and  C_45
REMARK    5  A    between atoms: N_7  and  C_25
REMARK    6  A    between atoms: N_8  and  C_30
REMARK                            x       y       z     vdW  Elec       q    Type
REMARK                         _______ _______ _______ _____ _____    ______ ____
ROOT
ATOM      1  O   UNL     1     -23.331   6.019 -24.135  0.00  0.00    +0.000 OA
ATOM      2  O   UNL     1     -25.843   4.694 -25.035  0.00  0.00    +0.000 OA
ATOM      3  O   UNL     1     -25.828   2.772 -26.477  0.00  0.00    +0.000 OA
ATOM      4  O   UNL     1     -24.913  10.132 -26.792  0.00  0.00    +0.000 OA
ATOM      5  N   UNL     1     -19.648   4.407 -25.439  0.00  0.00    +0.000 N 
ATOM      6  N   UNL     1     -26.572   9.001 -19.944  0.00  0.00    +0.000 N 
ATOM      7  C   UNL     1     -20.877   5.237 -25.376  0.00  0.00    +0.000 C 
ATOM      8  C   UNL     1     -22.190   4.468 -25.537  0.00  0.00    +0.000 A 
ATOM      9  C   UNL     1     -26.074   8.934 -21.337  0.00  0.00    +0.000 C 
ATOM     10  C   UNL     1     -22.202   3.307 -26.351  0.00  0.00    +0.000 A 
ATOM     11  C   UNL     1     -19.849   2.982 -25.714  0.00  0.00    +0.000 C 
ATOM     12  C   UNL     1     -20.883   2.759 -26.818  0.00  0.00    +0.000 C 
ATOM     13  C   UNL     1     -25.503   7.546 -21.632  0.00  0.00    +0.000 A 
ATOM     14  C   UNL     1     -20.711   6.295 -26.508  0.00  0.00    +0.000 C 
ATOM     15  C   UNL     1     -27.543   7.944 -19.662  0.00  0.00    +0.000 C 
ATOM     16  C   UNL     1     -25.907   6.429 -20.879  0.00  0.00    +0.000 A 
ATOM     17  C   UNL     1     -26.841   6.586 -19.706  0.00  0.00    +0.000 C 
ATOM     18  C   UNL     1     -23.397   4.930 -24.970  0.00  0.00    +0.000 A 
ATOM     19  C   UNL     1     -27.121   9.317 -22.431  0.00  0.00    +0.000 C 
ATOM     20  C   UNL     1     -23.406   2.685 -26.699  0.00  0.00    +0.000 A 
ATOM     21  C   UNL     1     -24.576   4.319 -25.366  0.00  0.00    +0.000 A 
ATOM     22  C   UNL     1     -24.602   7.361 -22.689  0.00  0.00    +0.000 A 
ATOM     23  C   UNL     1     -18.788   4.603 -24.274  0.00  0.00    +0.000 C 
ATOM     24  C   UNL     1     -24.150   6.084 -23.032  0.00  0.00    +0.000 A 
ATOM     25  C   UNL     1     -24.574   3.227 -26.207  0.00  0.00    +0.000 A 
ATOM     26  C   UNL     1     -21.796   7.345 -26.587  0.00  0.00    +0.000 A 
ATOM     27  C   UNL     1     -25.380   5.162 -21.176  0.00  0.00    +0.000 A 
ATOM     28  C   UNL     1     -27.054  10.317 -19.546  0.00  0.00    +0.000 C 
ATOM     29  C   UNL     1     -26.552  10.241 -23.486  0.00  0.00    +0.000 A 
ATOM     30  C   UNL     1     -24.501   4.989 -22.245  0.00  0.00    +0.000 A 
ATOM     31  C   UNL     1     -21.801   8.434 -25.706  0.00  0.00    +0.000 A 
ATOM     32  C   UNL     1     -22.826   7.230 -27.533  0.00  0.00    +0.000 A 
ATOM     33  C   UNL     1     -26.628   3.706 -25.729  0.00  0.00    +0.000 C 
ATOM     34  C   UNL     1     -26.059   9.740 -24.698  0.00  0.00    +0.000 A 
ATOM     35  C   UNL     1     -26.475  11.621 -23.241  0.00  0.00    +0.000 A 
ATOM     36  C   UNL     1     -25.450  10.602 -25.615  0.00  0.00    +0.000 A 
ATOM     37  C   UNL     1     -22.828   9.380 -25.755  0.00  0.00    +0.000 A 
ATOM     38  C   UNL     1     -23.857   8.170 -27.579  0.00  0.00    +0.000 A 
ATOM     39  C   UNL     1     -23.871   9.233 -26.676  0.00  0.00    +0.000 A 
ATOM     40  C   UNL     1     -25.917  12.483 -24.188  0.00  0.00    +0.000 A 
ATOM     41  C   UNL     1     -25.405  11.976 -25.379  0.00  0.00    +0.000 A 
ATOM     42  H   UNL     1     -19.170   4.762 -26.268  0.00  0.00    +0.000 HD
ATOM     43  H   UNL     1     -25.756   8.832 -19.356  0.00  0.00    +0.000 HD
ENDROOT
BRANCH  30  44
ATOM     44  O   UNL     1     -24.019   3.734 -22.460  0.00  0.00    +0.000 OA
ATOM     45  C   UNL     1     -24.922   2.649 -22.262  0.00  0.00    +0.000 C 
ENDBRANCH  30  44
BRANCH  41  46
ATOM     46  O   UNL     1     -24.873  12.829 -26.295  0.00  0.00    +0.000 OA
ATOM     47  C   UNL     1     -23.475  13.090 -26.202  0.00  0.00    +0.000 C 
ENDBRANCH  41  46
TORSDOF 2
ENDMDL
MODEL 9
REMARK VINA RESULT:    -7.344      3.291      7.723
REMARK INTER + INTRA:          -8.505
REMARK INTER:                  -8.103
REMARK INTRA:                  -0.402
REMARK UNBOUND:                -0.302
REMARK  Name = 10206
REMARK  6 active torsions:
REMARK  status: ('A' for Active; 'I' for Inactive)
REMARK    1  A    between atoms: O_4  and  C_32
REMARK    2  A    between atoms: O_4  and  C_44
REMARK    3  A    between atoms: O_6  and  C_43
REMARK    4  A    between atoms: O_6  and  C_45
REMARK    5  A    between atoms: N_7  and  C_25
REMARK    6  A    between atoms: N_8  and  C_30
REMARK                            x       y       z     vdW  Elec       q    Type
REMARK                         _______ _______ _______ _____ _____    ______ ____
ROOT
ATOM      1  O   UNL     1     -25.652   7.654 -23.948  0.00  0.00    +0.000 OA
ATOM      2  O   UNL     1     -26.340   5.108 -22.562  0.00  0.00    +0.000 OA
ATOM      3  O   UNL     1     -27.142   5.063 -20.297  0.00  0.00    +0.000 OA
ATOM      4  O   UNL     1     -20.810   5.919 -24.076  0.00  0.00    +0.000 OA
ATOM      5  N   UNL     1     -26.155  11.278 -21.831  0.00  0.00    +0.000 N 
ATOM      6  N   UNL     1     -25.592   4.608 -29.209  0.00  0.00    +0.000 N 
ATOM      7  C   UNL     1     -25.539  10.048 -22.390  0.00  0.00    +0.000 C 
ATOM      8  C   UNL     1     -26.132   8.733 -21.880  0.00  0.00    +0.000 A 
ATOM      9  C   UNL     1     -24.861   5.036 -27.995  0.00  0.00    +0.000 C 
ATOM     10  C   UNL     1     -26.649   8.688 -20.561  0.00  0.00    +0.000 A 
ATOM     11  C   UNL     1     -27.196  11.072 -20.820  0.00  0.00    +0.000 C 
ATOM     12  C   UNL     1     -26.804   9.985 -19.818  0.00  0.00    +0.000 C 
ATOM     13  C   UNL     1     -25.836   5.600 -26.959  0.00  0.00    +0.000 A 
ATOM     14  C   UNL     1     -24.026  10.153 -22.028  0.00  0.00    +0.000 C 
ATOM     15  C   UNL     1     -26.659   3.658 -28.895  0.00  0.00    +0.000 C 
ATOM     16  C   UNL     1     -27.195   5.241 -26.981  0.00  0.00    +0.000 A 
ATOM     17  C   UNL     1     -27.743   4.365 -28.079  0.00  0.00    +0.000 C 
ATOM     18  C   UNL     1     -26.100   7.554 -22.654  0.00  0.00    +0.000 A 
ATOM     19  C   UNL     1     -23.972   3.934 -27.337  0.00  0.00    +0.000 C 
ATOM     20  C   UNL     1     -27.013   7.472 -19.972  0.00  0.00    +0.000 A 
ATOM     21  C   UNL     1     -26.427   6.360 -22.030  0.00  0.00    +0.000 A 
ATOM     22  C   UNL     1     -25.376   6.449 -25.943  0.00  0.00    +0.000 A 
ATOM     23  C   UNL     1     -26.608  12.193 -22.876  0.00  0.00    +0.000 C 
ATOM     24  C   UNL     1     -26.235   6.891 -24.933  0.00  0.00    +0.000 A 
ATOM     25  C   UNL     1     -26.871   6.327 -20.726  0.00  0.00    +0.000 A 
ATOM     26  C   UNL     1     -23.143   9.059 -22.585  0.00  0.00    +0.000 A 
ATOM     27  C   UNL     1     -28.069   5.760 -26.013  0.00  0.00    +0.000 A 
ATOM     28  C   UNL     1     -24.732   4.138 -30.288  0.00  0.00    +0.000 C 
ATOM     29  C   UNL     1     -22.601   4.445 -26.950  0.00  0.00    +0.000 A 
ATOM     30  C   UNL     1     -27.593   6.586 -24.995  0.00  0.00    +0.000 A 
ATOM     31  C   UNL     1     -22.724   9.090 -23.921  0.00  0.00    +0.000 A 
ATOM     32  C   UNL     1     -22.750   7.984 -21.774  0.00  0.00    +0.000 A 
ATOM     33  C   UNL     1     -26.803   4.297 -21.467  0.00  0.00    +0.000 C 
ATOM     34  C   UNL     1     -22.332   4.881 -25.645  0.00  0.00    +0.000 A 
ATOM     35  C   UNL     1     -21.584   4.526 -27.914  0.00  0.00    +0.000 A 
ATOM     36  C   UNL     1     -21.087   5.439 -25.336  0.00  0.00    +0.000 A 
ATOM     37  C   UNL     1     -21.942   8.057 -24.444  0.00  0.00    +0.000 A 
ATOM     38  C   UNL     1     -21.974   6.946 -22.295  0.00  0.00    +0.000 A 
ATOM     39  C   UNL     1     -21.589   6.970 -23.636  0.00  0.00    +0.000 A 
ATOM     40  C   UNL     1     -20.326   5.031 -27.583  0.00  0.00    +0.000 A 
ATOM     41  C   UNL     1     -20.072   5.487 -26.292  0.00  0.00    +0.000 A 
ATOM     42  H   UNL     1     -25.386  11.712 -21.320  0.00  0.00    +0.000 HD
ATOM     43  H   UNL     1     -26.032   5.453 -29.573  0.00  0.00    +0.000 HD
ENDROOT
BRANCH  30  44
ATOM     44  O   UNL     1     -28.503   7.063 -24.102  0.00  0.00    +0.000 OA
ATOM     45  C   UNL     1     -29.643   6.249 -23.838  0.00  0.00    +0.000 C 
ENDBRANCH  30  44
BRANCH  41  46
ATOM     46  O   UNL     1     -18.838   5.968 -25.983  0.00  0.00    +0.000 OA
ATOM     47  C   UNL     1     -18.590   7.343 -26.265  0.00  0.00    +0.000 C 
ENDBRANCH  41  46
TORSDOF 2
ENDMDL
