MODEL 1
REMARK VINA RESULT:    -5.505      0.000      0.000
REMARK INTER + INTRA:          -9.241
REMARK INTER:                  -8.080
REMARK INTRA:                  -1.161
REMARK UNBOUND:                -1.161
REMARK  Name = 2719
REMARK  11 active torsions:
REMARK  status: ('A' for Active; 'I' for Inactive)
REMARK    1  A    between atoms: N_2  and  C_8
REMARK    2  A    between atoms: N_2  and  C_10
REMARK    3  A    between atoms: N_2  and  C_11
REMARK    4  A    between atoms: N_3  and  C_7
REMARK    5  A    between atoms: N_3  and  C_12
REMARK    6  A    between atoms: C_5  and  C_6
REMARK    7  A    between atoms: C_5  and  C_7
REMARK    8  A    between atoms: C_6  and  C_8
REMARK    9  A    between atoms: C_7  and  C_9
REMARK   10  A    between atoms: C_10  and  C_14
REMARK   11  A    between atoms: C_11  and  C_15
REMARK                            x       y       z     vdW  Elec       q    Type
REMARK                         _______ _______ _______ _____ _____    ______ ____
ROOT
ATOM      1  N   UNL     1     -20.645   7.571 -23.584  0.00  0.00    +0.000 N 
ATOM      2  H   UNL     1     -20.727   8.552 -23.582  0.00  0.00    +0.000 HD
ENDROOT
BRANCH   1   5
ATOM      3 CL   UNL     1     -25.685   8.139 -19.082  0.00  0.00    +0.000 Cl
ATOM      4  N   UNL     1     -21.494   5.451 -20.062  0.00  0.00    +0.000 NA
ATOM      5  C   UNL     1     -20.949   6.887 -22.420  0.00  0.00    +0.000 A 
ATOM      6  C   UNL     1     -22.083   7.189 -21.623  0.00  0.00    +0.000 A 
ATOM      7  C   UNL     1     -20.106   5.849 -21.996  0.00  0.00    +0.000 A 
ATOM      8  C   UNL     1     -22.317   6.444 -20.449  0.00  0.00    +0.000 A 
ATOM      9  C   UNL     1     -22.963   8.219 -21.998  0.00  0.00    +0.000 A 
ATOM     10  C   UNL     1     -20.417   5.176 -20.832  0.00  0.00    +0.000 A 
ATOM     11  C   UNL     1     -23.438   6.760 -19.685  0.00  0.00    +0.000 A 
ATOM     12  C   UNL     1     -24.076   8.514 -21.215  0.00  0.00    +0.000 A 
ATOM     13  C   UNL     1     -24.313   7.784 -20.058  0.00  0.00    +0.000 A 
ENDBRANCH   1   5
BRANCH   1  14
ATOM     14  C   UNL     1     -20.215   6.921 -24.805  0.00  0.00    +0.000 C 
ATOM     15  C   UNL     1     -21.411   6.814 -25.746  0.00  0.00    +0.000 C 
BRANCH  14  16
ATOM     16  C   UNL     1     -19.075   7.716 -25.456  0.00  0.00    +0.000 C 
BRANCH  16  17
ATOM     17  C   UNL     1     -17.714   7.026 -25.305  0.00  0.00    +0.000 C 
BRANCH  17  18
ATOM     18  C   UNL     1     -17.882   5.562 -24.900  0.00  0.00    +0.000 C 
BRANCH  18  19
ATOM     19  N   UNL     1     -16.661   5.065 -24.274  0.00  0.00    +0.000 N 
ATOM     20  H   UNL     1     -15.876   5.292 -24.885  0.00  0.00    +0.000 HD
BRANCH  19  21
ATOM     21  C   UNL     1     -16.720   3.612 -24.112  0.00  0.00    +0.000 C 
ATOM     22  C   UNL     1     -18.097   3.167 -23.647  0.00  0.00    +0.000 C 
ENDBRANCH  19  21
BRANCH  19  23
ATOM     23  C   UNL     1     -16.446   5.713 -22.980  0.00  0.00    +0.000 C 
ATOM     24  C   UNL     1     -15.251   5.115 -22.258  0.00  0.00    +0.000 C 
ENDBRANCH  19  23
ENDBRANCH  18  19
ENDBRANCH  17  18
ENDBRANCH  16  17
ENDBRANCH  14  16
ENDBRANCH   1  14
TORSDOF 8
ENDMDL
MODEL 2
REMARK VINA RESULT:    -5.355      8.978     12.195
REMARK INTER + INTRA:          -9.020
REMARK INTER:                  -8.127
REMARK INTRA:                  -0.893
REMARK UNBOUND:                -1.161
REMARK  Name = 2719
REMARK  11 active torsions:
REMARK  status: ('A' for Active; 'I' for Inactive)
REMARK    1  A    between atoms: N_2  and  C_8
REMARK    2  A    between atoms: N_2  and  C_10
REMARK    3  A    between atoms: N_2  and  C_11
REMARK    4  A    between atoms: N_3  and  C_7
REMARK    5  A    between atoms: N_3  and  C_12
REMARK    6  A    between atoms: C_5  and  C_6
REMARK    7  A    between atoms: C_5  and  C_7
REMARK    8  A    between atoms: C_6  and  C_8
REMARK    9  A    between atoms: C_7  and  C_9
REMARK   10  A    between atoms: C_10  and  C_14
REMARK   11  A    between atoms: C_11  and  C_15
REMARK                            x       y       z     vdW  Elec       q    Type
REMARK                         _______ _______ _______ _____ _____    ______ ____
ROOT
ATOM      1  N   UNL     1     -26.607  14.770 -17.613  0.00  0.00    +0.000 N 
ATOM      2  H   UNL     1     -25.681  14.523 -17.839  0.00  0.00    +0.000 HD
ENDROOT
BRANCH   1   5
ATOM      3 CL   UNL     1     -26.180  21.509 -18.239  0.00  0.00    +0.000 Cl
ATOM      4  N   UNL     1     -27.231  17.874 -14.858  0.00  0.00    +0.000 NA
ATOM      5  C   UNL     1     -26.808  15.812 -16.726  0.00  0.00    +0.000 A 
ATOM      6  C   UNL     1     -26.656  17.174 -17.091  0.00  0.00    +0.000 A 
ATOM      7  C   UNL     1     -27.175  15.523 -15.403  0.00  0.00    +0.000 A 
ATOM      8  C   UNL     1     -26.879  18.175 -16.122  0.00  0.00    +0.000 A 
ATOM      9  C   UNL     1     -26.289  17.524 -18.402  0.00  0.00    +0.000 A 
ATOM     10  C   UNL     1     -27.371  16.571 -14.526  0.00  0.00    +0.000 A 
ATOM     11  C   UNL     1     -26.724  19.504 -16.507  0.00  0.00    +0.000 A 
ATOM     12  C   UNL     1     -26.142  18.861 -18.759  0.00  0.00    +0.000 A 
ATOM     13  C   UNL     1     -26.359  19.852 -17.810  0.00  0.00    +0.000 A 
ENDBRANCH   1   5
BRANCH   1  14
ATOM     14  C   UNL     1     -27.685  14.023 -18.229  0.00  0.00    +0.000 C 
ATOM     15  C   UNL     1     -27.649  14.270 -19.734  0.00  0.00    +0.000 C 
BRANCH  14  16
ATOM     16  C   UNL     1     -27.542  12.528 -17.915  0.00  0.00    +0.000 C 
BRANCH  16  17
ATOM     17  C   UNL     1     -27.310  11.681 -19.171  0.00  0.00    +0.000 C 
BRANCH  17  18
ATOM     18  C   UNL     1     -26.205  10.650 -18.943  0.00  0.00    +0.000 C 
BRANCH  18  19
ATOM     19  N   UNL     1     -25.377  10.520 -20.137  0.00  0.00    +0.000 N 
ATOM     20  H   UNL     1     -24.510  11.035 -19.980  0.00  0.00    +0.000 HD
BRANCH  19  21
ATOM     21  C   UNL     1     -26.057  11.095 -21.299  0.00  0.00    +0.000 C 
ATOM     22  C   UNL     1     -26.260  10.053 -22.387  0.00  0.00    +0.000 C 
ENDBRANCH  19  21
BRANCH  19  23
ATOM     23  C   UNL     1     -25.047   9.116 -20.384  0.00  0.00    +0.000 C 
ATOM     24  C   UNL     1     -25.454   8.242 -19.210  0.00  0.00    +0.000 C 
ENDBRANCH  19  23
ENDBRANCH  18  19
ENDBRANCH  17  18
ENDBRANCH  16  17
ENDBRANCH  14  16
ENDBRANCH   1  14
TORSDOF 8
ENDMDL
MODEL 3
REMARK VINA RESULT:    -5.275      3.237      7.116
REMARK INTER + INTRA:          -8.902
REMARK INTER:                  -7.682
REMARK INTRA:                  -1.220
REMARK UNBOUND:                -1.161
REMARK  Name = 2719
REMARK  11 active torsions:
REMARK  status: ('A' for Active; 'I' for Inactive)
REMARK    1  A    between atoms: N_2  and  C_8
REMARK    2  A    between atoms: N_2  and  C_10
REMARK    3  A    between atoms: N_2  and  C_11
REMARK    4  A    between atoms: N_3  and  C_7
REMARK    5  A    between atoms: N_3  and  C_12
REMARK    6  A    between atoms: C_5  and  C_6
REMARK    7  A    between atoms: C_5  and  C_7
REMARK    8  A    between atoms: C_6  and  C_8
REMARK    9  A    between atoms: C_7  and  C_9
REMARK   10  A    between atoms: C_10  and  C_14
REMARK   11  A    between atoms: C_11  and  C_15
REMARK                            x       y       z     vdW  Elec       q    Type
REMARK                         _______ _______ _______ _____ _____    ______ ____
ROOT
ATOM      1  N   UNL     1     -20.148   4.143 -23.018  0.00  0.00    +0.000 N 
ATOM      2  H   UNL     1     -20.063   3.247 -23.418  0.00  0.00    +0.000 HD
ENDROOT
BRANCH   1   5
ATOM      3 CL   UNL     1     -13.415   4.550 -22.320  0.00  0.00    +0.000 Cl
ATOM      4  N   UNL     1     -17.401   7.118 -24.123  0.00  0.00    +0.000 NA
ATOM      5  C   UNL     1     -19.221   5.108 -23.373  0.00  0.00    +0.000 A 
ATOM      6  C   UNL     1     -17.832   4.971 -23.119  0.00  0.00    +0.000 A 
ATOM      7  C   UNL     1     -19.661   6.277 -24.010  0.00  0.00    +0.000 A 
ATOM      8  C   UNL     1     -16.957   6.004 -23.512  0.00  0.00    +0.000 A 
ATOM      9  C   UNL     1     -17.334   3.821 -22.484  0.00  0.00    +0.000 A 
ATOM     10  C   UNL     1     -18.728   7.233 -24.358  0.00  0.00    +0.000 A 
ATOM     11  C   UNL     1     -15.598   5.845 -23.252  0.00  0.00    +0.000 A 
ATOM     12  C   UNL     1     -15.970   3.688 -22.236  0.00  0.00    +0.000 A 
ATOM     13  C   UNL     1     -15.102   4.702 -22.621  0.00  0.00    +0.000 A 
ENDBRANCH   1   5
BRANCH   1  14
ATOM     14  C   UNL     1     -21.236   4.381 -22.093  0.00  0.00    +0.000 C 
ATOM     15  C   UNL     1     -22.244   3.243 -22.226  0.00  0.00    +0.000 C 
BRANCH  14  16
ATOM     16  C   UNL     1     -20.701   4.474 -20.657  0.00  0.00    +0.000 C 
BRANCH  16  17
ATOM     17  C   UNL     1     -21.234   5.701 -19.908  0.00  0.00    +0.000 C 
BRANCH  17  18
ATOM     18  C   UNL     1     -21.215   6.941 -20.802  0.00  0.00    +0.000 C 
BRANCH  18  19
ATOM     19  N   UNL     1     -22.532   7.569 -20.825  0.00  0.00    +0.000 N 
ATOM     20  H   UNL     1     -22.471   8.456 -20.325  0.00  0.00    +0.000 HD
BRANCH  19  21
ATOM     21  C   UNL     1     -23.518   6.722 -20.152  0.00  0.00    +0.000 C 
ATOM     22  C   UNL     1     -24.589   7.560 -19.472  0.00  0.00    +0.000 C 
ENDBRANCH  19  21
BRANCH  19  23
ATOM     23  C   UNL     1     -22.949   7.838 -22.202  0.00  0.00    +0.000 C 
ATOM     24  C   UNL     1     -23.103   9.330 -22.447  0.00  0.00    +0.000 C 
ENDBRANCH  19  23
ENDBRANCH  18  19
ENDBRANCH  17  18
ENDBRANCH  16  17
ENDBRANCH  14  16
ENDBRANCH   1  14
TORSDOF 8
ENDMDL
MODEL 4
REMARK VINA RESULT:    -5.267      3.564      6.948
REMARK INTER + INTRA:          -8.891
REMARK INTER:                  -7.564
REMARK INTRA:                  -1.327
REMARK UNBOUND:                -1.161
REMARK  Name = 2719
REMARK  11 active torsions:
REMARK  status: ('A' for Active; 'I' for Inactive)
REMARK    1  A    between atoms: N_2  and  C_8
REMARK    2  A    between atoms: N_2  and  C_10
REMARK    3  A    between atoms: N_2  and  C_11
REMARK    4  A    between atoms: N_3  and  C_7
REMARK    5  A    between atoms: N_3  and  C_12
REMARK    6  A    between atoms: C_5  and  C_6
REMARK    7  A    between atoms: C_5  and  C_7
REMARK    8  A    between atoms: C_6  and  C_8
REMARK    9  A    between atoms: C_7  and  C_9
REMARK   10  A    between atoms: C_10  and  C_14
REMARK   11  A    between atoms: C_11  and  C_15
REMARK                            x       y       z     vdW  Elec       q    Type
REMARK                         _______ _______ _______ _____ _____    ______ ____
ROOT
ATOM      1  N   UNL     1     -19.258   3.549 -24.915  0.00  0.00    +0.000 N 
ATOM      2  H   UNL     1     -18.930   3.244 -25.791  0.00  0.00    +0.000 HD
ENDROOT
BRANCH   1   5
ATOM      3 CL   UNL     1     -12.980   4.296 -22.462  0.00  0.00    +0.000 Cl
ATOM      4  N   UNL     1     -17.352   6.799 -23.065  0.00  0.00    +0.000 NA
ATOM      5  C   UNL     1     -18.606   4.605 -24.303  0.00  0.00    +0.000 A 
ATOM      6  C   UNL     1     -17.260   4.528 -23.864  0.00  0.00    +0.000 A 
ATOM      7  C   UNL     1     -19.295   5.810 -24.102  0.00  0.00    +0.000 A 
ATOM      8  C   UNL     1     -16.672   5.652 -23.248  0.00  0.00    +0.000 A 
ATOM      9  C   UNL     1     -16.520   3.346 -24.039  0.00  0.00    +0.000 A 
ATOM     10  C   UNL     1     -18.635   6.857 -23.490  0.00  0.00    +0.000 A 
ATOM     11  C   UNL     1     -15.349   5.550 -22.826  0.00  0.00    +0.000 A 
ATOM     12  C   UNL     1     -15.198   3.272 -23.607  0.00  0.00    +0.000 A 
ATOM     13  C   UNL     1     -14.613   4.375 -23.000  0.00  0.00    +0.000 A 
ENDBRANCH   1   5
BRANCH   1  14
ATOM     14  C   UNL     1     -20.398   2.868 -24.334  0.00  0.00    +0.000 C 
ATOM     15  C   UNL     1     -21.061   2.023 -25.417  0.00  0.00    +0.000 C 
BRANCH  14  16
ATOM     16  C   UNL     1     -19.950   1.996 -23.154  0.00  0.00    +0.000 C 
BRANCH  16  17
ATOM     17  C   UNL     1     -20.526   2.473 -21.816  0.00  0.00    +0.000 C 
BRANCH  17  18
ATOM     18  C   UNL     1     -21.968   2.952 -21.977  0.00  0.00    +0.000 C 
BRANCH  18  19
ATOM     19  N   UNL     1     -22.148   4.247 -21.332  0.00  0.00    +0.000 N 
ATOM     20  H   UNL     1     -22.707   4.108 -20.489  0.00  0.00    +0.000 HD
BRANCH  19  21
ATOM     21  C   UNL     1     -22.863   5.169 -22.217  0.00  0.00    +0.000 C 
ATOM     22  C   UNL     1     -24.173   5.624 -21.593  0.00  0.00    +0.000 C 
ENDBRANCH  19  21
BRANCH  19  23
ATOM     23  C   UNL     1     -20.855   4.813 -20.946  0.00  0.00    +0.000 C 
ATOM     24  C   UNL     1     -20.991   5.715 -19.730  0.00  0.00    +0.000 C 
ENDBRANCH  19  23
ENDBRANCH  18  19
ENDBRANCH  17  18
ENDBRANCH  16  17
ENDBRANCH  14  16
ENDBRANCH   1  14
TORSDOF 8
ENDMDL
MODEL 5
REMARK VINA RESULT:    -5.199     12.415     15.068
REMARK INTER + INTRA:          -8.791
REMARK INTER:                  -7.291
REMARK INTRA:                  -1.500
REMARK UNBOUND:                -1.161
REMARK  Name = 2719
REMARK  11 active torsions:
REMARK  status: ('A' for Active; 'I' for Inactive)
REMARK    1  A    between atoms: N_2  and  C_8
REMARK    2  A    between atoms: N_2  and  C_10
REMARK    3  A    between atoms: N_2  and  C_11
REMARK    4  A    between atoms: N_3  and  C_7
REMARK    5  A    between atoms: N_3  and  C_12
REMARK    6  A    between atoms: C_5  and  C_6
REMARK    7  A    between atoms: C_5  and  C_7
REMARK    8  A    between atoms: C_6  and  C_8
REMARK    9  A    between atoms: C_7  and  C_9
REMARK   10  A    between atoms: C_10  and  C_14
REMARK   11  A    between atoms: C_11  and  C_15
REMARK                            x       y       z     vdW  Elec       q    Type
REMARK                         _______ _______ _______ _____ _____    ______ ____
ROOT
ATOM      1  N   UNL     1     -26.878  17.886 -16.194  0.00  0.00    +0.000 N 
ATOM      2  H   UNL     1     -26.150  17.227 -16.126  0.00  0.00    +0.000 HD
ENDROOT
BRANCH   1   5
ATOM      3 CL   UNL     1     -26.695  17.924 -22.973  0.00  0.00    +0.000 Cl
ATOM      4  N   UNL     1     -26.501  21.021 -18.959  0.00  0.00    +0.000 NA
ATOM      5  C   UNL     1     -26.756  18.901 -17.127  0.00  0.00    +0.000 A 
ATOM      6  C   UNL     1     -26.742  18.664 -18.525  0.00  0.00    +0.000 A 
ATOM      7  C   UNL     1     -26.639  20.227 -16.684  0.00  0.00    +0.000 A 
ATOM      8  C   UNL     1     -26.611  19.757 -19.407  0.00  0.00    +0.000 A 
ATOM      9  C   UNL     1     -26.855  17.356 -19.027  0.00  0.00    +0.000 A 
ATOM     10  C   UNL     1     -26.516  21.231 -17.623  0.00  0.00    +0.000 A 
ATOM     11  C   UNL     1     -26.601  19.496 -20.775  0.00  0.00    +0.000 A 
ATOM     12  C   UNL     1     -26.842  17.125 -20.399  0.00  0.00    +0.000 A 
ATOM     13  C   UNL     1     -26.714  18.196 -21.274  0.00  0.00    +0.000 A 
ENDBRANCH   1   5
BRANCH   1  14
ATOM     14  C   UNL     1     -28.019  17.741 -15.313  0.00  0.00    +0.000 C 
ATOM     15  C   UNL     1     -29.277  17.612 -16.165  0.00  0.00    +0.000 C 
BRANCH  14  16
ATOM     16  C   UNL     1     -27.839  16.513 -14.410  0.00  0.00    +0.000 C 
BRANCH  16  17
ATOM     17  C   UNL     1     -27.188  15.333 -15.142  0.00  0.00    +0.000 C 
BRANCH  17  18
ATOM     18  C   UNL     1     -27.952  14.036 -14.882  0.00  0.00    +0.000 C 
BRANCH  18  19
ATOM     19  N   UNL     1     -28.379  13.437 -16.141  0.00  0.00    +0.000 N 
ATOM     20  H   UNL     1     -28.293  12.424 -16.058  0.00  0.00    +0.000 HD
BRANCH  19  21
ATOM     21  C   UNL     1     -27.525  13.888 -17.242  0.00  0.00    +0.000 C 
ATOM     22  C   UNL     1     -28.292  13.922 -18.553  0.00  0.00    +0.000 C 
ENDBRANCH  19  21
BRANCH  19  23
ATOM     23  C   UNL     1     -29.779  13.764 -16.418  0.00  0.00    +0.000 C 
ATOM     24  C   UNL     1     -30.589  13.839 -15.135  0.00  0.00    +0.000 C 
ENDBRANCH  19  23
ENDBRANCH  18  19
ENDBRANCH  17  18
ENDBRANCH  16  17
ENDBRANCH  14  16
ENDBRANCH   1  14
TORSDOF 8
ENDMDL
MODEL 6
REMARK VINA RESULT:    -5.148      8.464     12.219
REMARK INTER + INTRA:          -8.717
REMARK INTER:                  -7.861
REMARK INTRA:                  -0.855
REMARK UNBOUND:                -1.161
REMARK  Name = 2719
REMARK  11 active torsions:
REMARK  status: ('A' for Active; 'I' for Inactive)
REMARK    1  A    between atoms: N_2  and  C_8
REMARK    2  A    between atoms: N_2  and  C_10
REMARK    3  A    between atoms: N_2  and  C_11
REMARK    4  A    between atoms: N_3  and  C_7
REMARK    5  A    between atoms: N_3  and  C_12
REMARK    6  A    between atoms: C_5  and  C_6
REMARK    7  A    between atoms: C_5  and  C_7
REMARK    8  A    between atoms: C_6  and  C_8
REMARK    9  A    between atoms: C_7  and  C_9
REMARK   10  A    between atoms: C_10  and  C_14
REMARK   11  A    between atoms: C_11  and  C_15
REMARK                            x       y       z     vdW  Elec       q    Type
REMARK                         _______ _______ _______ _____ _____    ______ ____
ROOT
ATOM      1  N   UNL     1     -28.024  13.173 -16.288  0.00  0.00    +0.000 N 
ATOM      2  H   UNL     1     -27.310  12.502 -16.391  0.00  0.00    +0.000 HD
ENDROOT
BRANCH   1   5
ATOM      3 CL   UNL     1     -25.927  18.822 -19.399  0.00  0.00    +0.000 Cl
ATOM      4  N   UNL     1     -26.989  16.959 -14.801  0.00  0.00    +0.000 NA
ATOM      5  C   UNL     1     -27.678  14.430 -15.825  0.00  0.00    +0.000 A 
ATOM      6  C   UNL     1     -27.259  15.479 -16.683  0.00  0.00    +0.000 A 
ATOM      7  C   UNL     1     -27.738  14.692 -14.448  0.00  0.00    +0.000 A 
ATOM      8  C   UNL     1     -26.923  16.730 -16.126  0.00  0.00    +0.000 A 
ATOM      9  C   UNL     1     -27.180  15.275 -18.071  0.00  0.00    +0.000 A 
ATOM     10  C   UNL     1     -27.390  15.948 -13.996  0.00  0.00    +0.000 A 
ATOM     11  C   UNL     1     -26.515  17.743 -16.990  0.00  0.00    +0.000 A 
ATOM     12  C   UNL     1     -26.769  16.305 -18.911  0.00  0.00    +0.000 A 
ATOM     13  C   UNL     1     -26.436  17.540 -18.370  0.00  0.00    +0.000 A 
ENDBRANCH   1   5
BRANCH   1  14
ATOM     14  C   UNL     1     -29.378  12.790 -16.632  0.00  0.00    +0.000 C 
ATOM     15  C   UNL     1     -30.277  14.015 -16.499  0.00  0.00    +0.000 C 
BRANCH  14  16
ATOM     16  C   UNL     1     -29.425  12.228 -18.059  0.00  0.00    +0.000 C 
BRANCH  16  17
ATOM     17  C   UNL     1     -28.183  11.398 -18.406  0.00  0.00    +0.000 C 
BRANCH  17  18
ATOM     18  C   UNL     1     -27.445  11.989 -19.607  0.00  0.00    +0.000 C 
BRANCH  18  19
ATOM     19  N   UNL     1     -26.178  11.296 -19.815  0.00  0.00    +0.000 N 
ATOM     20  H   UNL     1     -25.424  11.912 -19.512  0.00  0.00    +0.000 HD
BRANCH  19  21
ATOM     21  C   UNL     1     -25.987  10.989 -21.234  0.00  0.00    +0.000 C 
ATOM     22  C   UNL     1     -26.841  11.890 -22.110  0.00  0.00    +0.000 C 
ENDBRANCH  19  21
BRANCH  19  23
ATOM     23  C   UNL     1     -26.126  10.069 -19.019  0.00  0.00    +0.000 C 
ATOM     24  C   UNL     1     -25.576   8.910 -19.831  0.00  0.00    +0.000 C 
ENDBRANCH  19  23
ENDBRANCH  18  19
ENDBRANCH  17  18
ENDBRANCH  16  17
ENDBRANCH  14  16
ENDBRANCH   1  14
TORSDOF 8
ENDMDL
MODEL 7
REMARK VINA RESULT:    -5.049      3.624      7.802
REMARK INTER + INTRA:          -8.572
REMARK INTER:                  -8.006
REMARK INTRA:                  -0.566
REMARK UNBOUND:                -1.161
REMARK  Name = 2719
REMARK  11 active torsions:
REMARK  status: ('A' for Active; 'I' for Inactive)
REMARK    1  A    between atoms: N_2  and  C_8
REMARK    2  A    between atoms: N_2  and  C_10
REMARK    3  A    between atoms: N_2  and  C_11
REMARK    4  A    between atoms: N_3  and  C_7
REMARK    5  A    between atoms: N_3  and  C_12
REMARK    6  A    between atoms: C_5  and  C_6
REMARK    7  A    between atoms: C_5  and  C_7
REMARK    8  A    between atoms: C_6  and  C_8
REMARK    9  A    between atoms: C_7  and  C_9
REMARK   10  A    between atoms: C_10  and  C_14
REMARK   11  A    between atoms: C_11  and  C_15
REMARK                            x       y       z     vdW  Elec       q    Type
REMARK                         _______ _______ _______ _____ _____    ______ ____
ROOT
ATOM      1  N   UNL     1     -19.274   5.264 -23.439  0.00  0.00    +0.000 N 
ATOM      2  H   UNL     1     -19.216   6.168 -23.824  0.00  0.00    +0.000 HD
ENDROOT
BRANCH   1   5
ATOM      3 CL   UNL     1     -12.660   4.271 -22.312  0.00  0.00    +0.000 Cl
ATOM      4  N   UNL     1     -16.615   2.327 -24.826  0.00  0.00    +0.000 NA
ATOM      5  C   UNL     1     -18.376   4.307 -23.880  0.00  0.00    +0.000 A 
ATOM      6  C   UNL     1     -17.009   4.301 -23.503  0.00  0.00    +0.000 A 
ATOM      7  C   UNL     1     -18.825   3.294 -24.741  0.00  0.00    +0.000 A 
ATOM      8  C   UNL     1     -16.163   3.290 -24.002  0.00  0.00    +0.000 A 
ATOM      9  C   UNL     1     -16.503   5.292 -22.644  0.00  0.00    +0.000 A 
ATOM     10  C   UNL     1     -17.921   2.346 -25.177  0.00  0.00    +0.000 A 
ATOM     11  C   UNL     1     -14.824   3.307 -23.616  0.00  0.00    +0.000 A 
ATOM     12  C   UNL     1     -15.161   5.284 -22.274  0.00  0.00    +0.000 A 
ATOM     13  C   UNL     1     -14.321   4.291 -22.761  0.00  0.00    +0.000 A 
ENDBRANCH   1   5
BRANCH   1  14
ATOM     14  C   UNL     1     -20.291   5.007 -22.441  0.00  0.00    +0.000 C 
ATOM     15  C   UNL     1     -19.810   3.876 -21.536  0.00  0.00    +0.000 C 
BRANCH  14  16
ATOM     16  C   UNL     1     -20.570   6.278 -21.628  0.00  0.00    +0.000 C 
BRANCH  16  17
ATOM     17  C   UNL     1     -21.730   6.104 -20.640  0.00  0.00    +0.000 C 
BRANCH  17  18
ATOM     18  C   UNL     1     -23.026   5.754 -21.370  0.00  0.00    +0.000 C 
BRANCH  18  19
ATOM     19  N   UNL     1     -24.175   5.978 -20.499  0.00  0.00    +0.000 N 
ATOM     20  H   UNL     1     -24.313   5.141 -19.933  0.00  0.00    +0.000 HD
BRANCH  19  21
ATOM     21  C   UNL     1     -25.384   6.209 -21.291  0.00  0.00    +0.000 C 
ATOM     22  C   UNL     1     -26.390   5.086 -21.097  0.00  0.00    +0.000 C 
ENDBRANCH  19  21
BRANCH  19  23
ATOM     23  C   UNL     1     -23.929   7.110 -19.605  0.00  0.00    +0.000 C 
ATOM     24  C   UNL     1     -25.035   8.146 -19.713  0.00  0.00    +0.000 C 
ENDBRANCH  19  23
ENDBRANCH  18  19
ENDBRANCH  17  18
ENDBRANCH  16  17
ENDBRANCH  14  16
ENDBRANCH   1  14
TORSDOF 8
ENDMDL
MODEL 8
REMARK VINA RESULT:    -5.030      1.732      3.550
REMARK INTER + INTRA:          -8.543
REMARK INTER:                  -7.583
REMARK INTRA:                  -0.960
REMARK UNBOUND:                -1.161
REMARK  Name = 2719
REMARK  11 active torsions:
REMARK  status: ('A' for Active; 'I' for Inactive)
REMARK    1  A    between atoms: N_2  and  C_8
REMARK    2  A    between atoms: N_2  and  C_10
REMARK    3  A    between atoms: N_2  and  C_11
REMARK    4  A    between atoms: N_3  and  C_7
REMARK    5  A    between atoms: N_3  and  C_12
REMARK    6  A    between atoms: C_5  and  C_6
REMARK    7  A    between atoms: C_5  and  C_7
REMARK    8  A    between atoms: C_6  and  C_8
REMARK    9  A    between atoms: C_7  and  C_9
REMARK   10  A    between atoms: C_10  and  C_14
REMARK   11  A    between atoms: C_11  and  C_15
REMARK                            x       y       z     vdW  Elec       q    Type
REMARK                         _______ _______ _______ _____ _____    ______ ____
ROOT
ATOM      1  N   UNL     1     -22.273   5.897 -21.404  0.00  0.00    +0.000 N 
ATOM      2  H   UNL     1     -22.886   5.130 -21.336  0.00  0.00    +0.000 HD
ENDROOT
BRANCH   1   5
ATOM      3 CL   UNL     1     -26.898  10.111 -18.789  0.00  0.00    +0.000 Cl
ATOM      4  N   UNL     1     -23.788   9.569 -22.761  0.00  0.00    +0.000 NA
ATOM      5  C   UNL     1     -22.788   7.110 -21.828  0.00  0.00    +0.000 A 
ATOM      6  C   UNL     1     -23.772   7.825 -21.098  0.00  0.00    +0.000 A 
ATOM      7  C   UNL     1     -22.328   7.666 -23.031  0.00  0.00    +0.000 A 
ATOM      8  C   UNL     1     -24.244   9.054 -21.604  0.00  0.00    +0.000 A 
ATOM      9  C   UNL     1     -24.270   7.317 -19.887  0.00  0.00    +0.000 A 
ATOM     10  C   UNL     1     -22.851   8.874 -23.445  0.00  0.00    +0.000 A 
ATOM     11  C   UNL     1     -25.210   9.737 -20.868  0.00  0.00    +0.000 A 
ATOM     12  C   UNL     1     -25.235   8.021 -19.172  0.00  0.00    +0.000 A 
ATOM     13  C   UNL     1     -25.705   9.232 -19.663  0.00  0.00    +0.000 A 
ENDBRANCH   1   5
BRANCH   1  14
ATOM     14  C   UNL     1     -20.881   5.697 -21.055  0.00  0.00    +0.000 C 
ATOM     15  C   UNL     1     -20.736   5.834 -19.543  0.00  0.00    +0.000 C 
BRANCH  14  16
ATOM     16  C   UNL     1     -20.409   4.315 -21.528  0.00  0.00    +0.000 C 
BRANCH  16  17
ATOM     17  C   UNL     1     -18.982   4.340 -22.088  0.00  0.00    +0.000 C 
BRANCH  17  18
ATOM     18  C   UNL     1     -18.621   5.729 -22.612  0.00  0.00    +0.000 C 
BRANCH  18  19
ATOM     19  N   UNL     1     -17.173   5.875 -22.707  0.00  0.00    +0.000 N 
ATOM     20  H   UNL     1     -16.787   5.844 -21.763  0.00  0.00    +0.000 HD
BRANCH  19  21
ATOM     21  C   UNL     1     -16.823   7.161 -23.311  0.00  0.00    +0.000 C 
ATOM     22  C   UNL     1     -17.281   7.230 -24.759  0.00  0.00    +0.000 C 
ENDBRANCH  19  21
BRANCH  19  23
ATOM     23  C   UNL     1     -16.596   4.775 -23.482  0.00  0.00    +0.000 C 
ATOM     24  C   UNL     1     -15.223   4.394 -22.955  0.00  0.00    +0.000 C 
ENDBRANCH  19  23
ENDBRANCH  18  19
ENDBRANCH  17  18
ENDBRANCH  16  17
ENDBRANCH  14  16
ENDBRANCH   1  14
TORSDOF 8
ENDMDL
MODEL 9
REMARK VINA RESULT:    -5.019      3.877      6.937
REMARK INTER + INTRA:          -8.527
REMARK INTER:                  -7.236
REMARK INTRA:                  -1.291
REMARK UNBOUND:                -1.161
REMARK  Name = 2719
REMARK  11 active torsions:
REMARK  status: ('A' for Active; 'I' for Inactive)
REMARK    1  A    between atoms: N_2  and  C_8
REMARK    2  A    between atoms: N_2  and  C_10
REMARK    3  A    between atoms: N_2  and  C_11
REMARK    4  A    between atoms: N_3  and  C_7
REMARK    5  A    between atoms: N_3  and  C_12
REMARK    6  A    between atoms: C_5  and  C_6
REMARK    7  A    between atoms: C_5  and  C_7
REMARK    8  A    between atoms: C_6  and  C_8
REMARK    9  A    between atoms: C_7  and  C_9
REMARK   10  A    between atoms: C_10  and  C_14
REMARK   11  A    between atoms: C_11  and  C_15
REMARK                            x       y       z     vdW  Elec       q    Type
REMARK                         _______ _______ _______ _____ _____    ______ ____
ROOT
ATOM      1  N   UNL     1     -19.480   3.474 -22.695  0.00  0.00    +0.000 N 
ATOM      2  H   UNL     1     -19.259   4.042 -21.921  0.00  0.00    +0.000 HD
ENDROOT
BRANCH   1   5
ATOM      3 CL   UNL     1     -12.788   4.575 -22.624  0.00  0.00    +0.000 Cl
ATOM      4  N   UNL     1     -16.389   2.039 -25.144  0.00  0.00    +0.000 NA
ATOM      5  C   UNL     1     -18.442   3.015 -23.486  0.00  0.00    +0.000 A 
ATOM      6  C   UNL     1     -17.090   3.390 -23.277  0.00  0.00    +0.000 A 
ATOM      7  C   UNL     1     -18.725   2.141 -24.546  0.00  0.00    +0.000 A 
ATOM      8  C   UNL     1     -16.094   2.877 -24.133  0.00  0.00    +0.000 A 
ATOM      9  C   UNL     1     -16.747   4.263 -22.231  0.00  0.00    +0.000 A 
ATOM     10  C   UNL     1     -17.682   1.691 -25.331  0.00  0.00    +0.000 A 
ATOM     11  C   UNL     1     -14.774   3.261 -23.906  0.00  0.00    +0.000 A 
ATOM     12  C   UNL     1     -15.419   4.630 -22.027  0.00  0.00    +0.000 A 
ATOM     13  C   UNL     1     -14.433   4.128 -22.866  0.00  0.00    +0.000 A 
ENDBRANCH   1   5
BRANCH   1  14
ATOM     14  C   UNL     1     -20.873   3.164 -22.942  0.00  0.00    +0.000 C 
ATOM     15  C   UNL     1     -21.521   2.755 -21.623  0.00  0.00    +0.000 C 
BRANCH  14  16
ATOM     16  C   UNL     1     -21.587   4.378 -23.551  0.00  0.00    +0.000 C 
BRANCH  16  17
ATOM     17  C   UNL     1     -20.926   5.706 -23.164  0.00  0.00    +0.000 C 
BRANCH  17  18
ATOM     18  C   UNL     1     -21.168   6.773 -24.231  0.00  0.00    +0.000 C 
BRANCH  18  19
ATOM     19  N   UNL     1     -19.943   7.522 -24.487  0.00  0.00    +0.000 N 
ATOM     20  H   UNL     1     -19.867   8.258 -23.784  0.00  0.00    +0.000 HD
BRANCH  19  21
ATOM     21  C   UNL     1     -19.988   8.146 -25.810  0.00  0.00    +0.000 C 
ATOM     22  C   UNL     1     -21.420   8.411 -26.244  0.00  0.00    +0.000 C 
ENDBRANCH  19  21
BRANCH  19  23
ATOM     23  C   UNL     1     -18.774   6.649 -24.376  0.00  0.00    +0.000 C 
ATOM     24  C   UNL     1     -17.550   7.286 -25.012  0.00  0.00    +0.000 C 
ENDBRANCH  19  23
ENDBRANCH  18  19
ENDBRANCH  17  18
ENDBRANCH  16  17
ENDBRANCH  14  16
ENDBRANCH   1  14
TORSDOF 8
ENDMDL
