MODEL 1
REMARK VINA RESULT:    -6.843      0.000      0.000
REMARK INTER + INTRA:         -14.863
REMARK INTER:                 -12.044
REMARK INTRA:                  -2.820
REMARK UNBOUND:                -2.820
REMARK  Name = 213039
REMARK  16 active torsions:
REMARK  status: ('A' for Active; 'I' for Inactive)
REMARK    1  A    between atoms: S_1  and  N_10
REMARK    2  A    between atoms: S_1  and  C_26
REMARK    3  A    between atoms: O_4  and  C_14
REMARK    4  A    between atoms: O_4  and  C_20
REMARK    5  A    between atoms: O_5  and  C_19
REMARK    6  A    between atoms: N_9  and  C_18
REMARK    7  A    between atoms: N_10  and  C_21
REMARK    8  A    between atoms: N_10  and  C_23
REMARK    9  A    between atoms: N_11  and  C_38
REMARK   10  A    between atoms: C_18  and  C_19
REMARK   11  A    between atoms: C_18  and  C_22
REMARK   12  A    between atoms: C_19  and  C_21
REMARK   13  A    between atoms: C_22  and  C_25
REMARK   14  A    between atoms: C_23  and  C_24
REMARK   15  A    between atoms: C_24  and  C_27
REMARK   16  A    between atoms: C_24  and  C_28
REMARK                            x       y       z     vdW  Elec       q    Type
REMARK                         _______ _______ _______ _____ _____    ______ ____
ROOT
ATOM      1  C   UNL     1     -21.839   7.159 -21.348  0.00  0.00    +0.000 C 
ENDROOT
BRANCH   1   3
ATOM      2  O   UNL     1     -23.040   9.419 -22.721  0.00  0.00    +0.000 OA
ATOM      3  N   UNL     1     -22.262   7.233 -22.732  0.00  0.00    +0.000 N 
ATOM      4  C   UNL     1     -22.825   8.356 -23.296  0.00  0.00    +0.000 C 
ATOM      5  H   UNL     1     -22.142   6.439 -23.300  0.00  0.00    +0.000 HD
BRANCH   4   6
ATOM      6  O   UNL     1     -23.114   8.112 -24.609  0.00  0.00    +0.000 OA
BRANCH   6  11
ATOM      7  O   UNL     1     -22.669   6.967 -27.336  0.00  0.00    +0.000 OA
ATOM      8  O   UNL     1     -24.550   8.414 -27.552  0.00  0.00    +0.000 OA
ATOM      9  C   UNL     1     -22.490   9.253 -26.676  0.00  0.00    +0.000 C 
ATOM     10  C   UNL     1     -23.126   8.286 -27.661  0.00  0.00    +0.000 C 
ATOM     11  C   UNL     1     -22.061   8.352 -25.531  0.00  0.00    +0.000 C 
ATOM     12  C   UNL     1     -23.583  10.260 -26.416  0.00  0.00    +0.000 C 
ATOM     13  C   UNL     1     -21.729   7.064 -26.255  0.00  0.00    +0.000 C 
ATOM     14  C   UNL     1     -24.858   9.477 -26.644  0.00  0.00    +0.000 C 
ENDBRANCH   6  11
ENDBRANCH   4   6
ENDBRANCH   1   3
BRANCH   1  15
ATOM     15  C   UNL     1     -20.322   6.879 -21.256  0.00  0.00    +0.000 C 
BRANCH  15  16
ATOM     16  O   UNL     1     -19.691   7.942 -20.543  0.00  0.00    +0.000 OA
ATOM     17  H   UNL     1     -18.928   7.596 -20.054  0.00  0.00    +0.000 HD
ENDBRANCH  15  16
BRANCH  15  18
ATOM     18  C   UNL     1     -19.670   6.735 -22.634  0.00  0.00    +0.000 C 
BRANCH  18  19
ATOM     19  N   UNL     1     -19.246   5.332 -22.845  0.00  0.00    +0.000 NA
BRANCH  19  20
ATOM     20  S   UNL     1     -17.616   5.047 -23.336  0.00  0.00    +0.000 S 
ATOM     21  O   UNL     1     -17.119   3.850 -22.685  0.00  0.00    +0.000 OA
ATOM     22  O   UNL     1     -16.856   6.280 -23.238  0.00  0.00    +0.000 OA
BRANCH  20  23
ATOM     23  C   UNL     1     -17.792   4.675 -25.059  0.00  0.00    +0.000 A 
ATOM     24  C   UNL     1     -18.237   5.657 -25.942  0.00  0.00    +0.000 A 
ATOM     25  C   UNL     1     -17.485   3.398 -25.531  0.00  0.00    +0.000 A 
ATOM     26  C   UNL     1     -18.374   5.364 -27.300  0.00  0.00    +0.000 A 
ATOM     27  C   UNL     1     -17.622   3.105 -26.888  0.00  0.00    +0.000 A 
ATOM     28  C   UNL     1     -18.068   4.088 -27.772  0.00  0.00    +0.000 A 
BRANCH  28  29
ATOM     29  N   UNL     1     -18.206   3.791 -29.144  0.00  0.00    +0.000 N 
ATOM     30  H   UNL     1     -17.763   2.998 -29.523  0.00  0.00    +0.000 HD
ATOM     31  H   UNL     1     -18.745   4.378 -29.722  0.00  0.00    +0.000 HD
ENDBRANCH  28  29
ENDBRANCH  20  23
ENDBRANCH  19  20
BRANCH  19  32
ATOM     32  C   UNL     1     -19.833   4.413 -21.836  0.00  0.00    +0.000 C 
BRANCH  32  33
ATOM     33  C   UNL     1     -20.526   3.213 -22.494  0.00  0.00    +0.000 C 
ATOM     34  C   UNL     1     -21.519   2.528 -21.554  0.00  0.00    +0.000 C 
ATOM     35  C   UNL     1     -21.205   3.595 -23.811  0.00  0.00    +0.000 C 
ENDBRANCH  32  33
ENDBRANCH  19  32
ENDBRANCH  18  19
ENDBRANCH  15  18
ENDBRANCH   1  15
BRANCH   1  36
ATOM     36  C   UNL     1     -22.704   6.112 -20.620  0.00  0.00    +0.000 C 
BRANCH  36  37
ATOM     37  C   UNL     1     -24.129   6.551 -20.390  0.00  0.00    +0.000 A 
ATOM     38  C   UNL     1     -24.398   7.637 -19.557  0.00  0.00    +0.000 A 
ATOM     39  C   UNL     1     -25.177   5.871 -21.009  0.00  0.00    +0.000 A 
ATOM     40  C   UNL     1     -25.716   8.042 -19.343  0.00  0.00    +0.000 A 
ATOM     41  C   UNL     1     -26.495   6.276 -20.796  0.00  0.00    +0.000 A 
ATOM     42  C   UNL     1     -26.764   7.363 -19.963  0.00  0.00    +0.000 A 
ENDBRANCH  36  37
ENDBRANCH   1  36
TORSDOF 14
ENDMDL
MODEL 2
REMARK VINA RESULT:    -6.791      1.987      3.010
REMARK INTER + INTRA:         -14.772
REMARK INTER:                 -12.573
REMARK INTRA:                  -2.199
REMARK UNBOUND:                -2.820
REMARK  Name = 213039
REMARK  16 active torsions:
REMARK  status: ('A' for Active; 'I' for Inactive)
REMARK    1  A    between atoms: S_1  and  N_10
REMARK    2  A    between atoms: S_1  and  C_26
REMARK    3  A    between atoms: O_4  and  C_14
REMARK    4  A    between atoms: O_4  and  C_20
REMARK    5  A    between atoms: O_5  and  C_19
REMARK    6  A    between atoms: N_9  and  C_18
REMARK    7  A    between atoms: N_10  and  C_21
REMARK    8  A    between atoms: N_10  and  C_23
REMARK    9  A    between atoms: N_11  and  C_38
REMARK   10  A    between atoms: C_18  and  C_19
REMARK   11  A    between atoms: C_18  and  C_22
REMARK   12  A    between atoms: C_19  and  C_21
REMARK   13  A    between atoms: C_22  and  C_25
REMARK   14  A    between atoms: C_23  and  C_24
REMARK   15  A    between atoms: C_24  and  C_27
REMARK   16  A    between atoms: C_24  and  C_28
REMARK                            x       y       z     vdW  Elec       q    Type
REMARK                         _______ _______ _______ _____ _____    ______ ____
ROOT
ATOM      1  C   UNL     1     -22.196   7.080 -21.348  0.00  0.00    +0.000 C 
ENDROOT
BRANCH   1   3
ATOM      2  O   UNL     1     -23.580   9.531 -22.064  0.00  0.00    +0.000 OA
ATOM      3  N   UNL     1     -22.406   7.625 -22.674  0.00  0.00    +0.000 N 
ATOM      4  C   UNL     1     -23.079   8.802 -22.915  0.00  0.00    +0.000 C 
ATOM      5  H   UNL     1     -22.049   7.128 -23.445  0.00  0.00    +0.000 HD
BRANCH   4   6
ATOM      6  O   UNL     1     -23.109   9.044 -24.260  0.00  0.00    +0.000 OA
BRANCH   6  11
ATOM      7  O   UNL     1     -21.811  11.376 -25.609  0.00  0.00    +0.000 OA
ATOM      8  O   UNL     1     -21.908   9.659 -27.258  0.00  0.00    +0.000 OA
ATOM      9  C   UNL     1     -23.904  10.368 -26.152  0.00  0.00    +0.000 C 
ATOM     10  C   UNL     1     -22.555  10.808 -26.694  0.00  0.00    +0.000 C 
ATOM     11  C   UNL     1     -23.669  10.290 -24.653  0.00  0.00    +0.000 C 
ATOM     12  C   UNL     1     -24.182   9.086 -26.895  0.00  0.00    +0.000 C 
ATOM     13  C   UNL     1     -22.645  11.385 -24.440  0.00  0.00    +0.000 C 
ATOM     14  C   UNL     1     -22.804   8.544 -27.209  0.00  0.00    +0.000 C 
ENDBRANCH   6  11
ENDBRANCH   4   6
ENDBRANCH   1   3
BRANCH   1  15
ATOM     15  C   UNL     1     -20.743   6.579 -21.188  0.00  0.00    +0.000 C 
BRANCH  15  16
ATOM     16  O   UNL     1     -20.125   7.272 -20.104  0.00  0.00    +0.000 OA
ATOM     17  H   UNL     1     -20.134   8.226 -20.283  0.00  0.00    +0.000 HD
ENDBRANCH  15  16
BRANCH  15  18
ATOM     18  C   UNL     1     -19.913   6.781 -22.458  0.00  0.00    +0.000 C 
BRANCH  18  19
ATOM     19  N   UNL     1     -19.718   5.482 -23.142  0.00  0.00    +0.000 NA
BRANCH  19  20
ATOM     20  S   UNL     1     -18.722   5.454 -24.552  0.00  0.00    +0.000 S 
ATOM     21  O   UNL     1     -18.649   6.788 -25.117  0.00  0.00    +0.000 OA
ATOM     22  O   UNL     1     -19.110   4.340 -25.399  0.00  0.00    +0.000 OA
BRANCH  20  23
ATOM     23  C   UNL     1     -17.124   5.076 -23.888  0.00  0.00    +0.000 A 
ATOM     24  C   UNL     1     -16.536   3.839 -24.149  0.00  0.00    +0.000 A 
ATOM     25  C   UNL     1     -16.454   6.017 -23.105  0.00  0.00    +0.000 A 
ATOM     26  C   UNL     1     -15.276   3.542 -23.627  0.00  0.00    +0.000 A 
ATOM     27  C   UNL     1     -15.195   5.720 -22.583  0.00  0.00    +0.000 A 
ATOM     28  C   UNL     1     -14.606   4.483 -22.844  0.00  0.00    +0.000 A 
BRANCH  28  29
ATOM     29  N   UNL     1     -13.333   4.183 -22.317  0.00  0.00    +0.000 N 
ATOM     30  H   UNL     1     -12.542   4.679 -22.629  0.00  0.00    +0.000 HD
ATOM     31  H   UNL     1     -13.235   3.477 -21.637  0.00  0.00    +0.000 HD
ENDBRANCH  28  29
ENDBRANCH  20  23
ENDBRANCH  19  20
BRANCH  19  32
ATOM     32  C   UNL     1     -19.583   4.358 -22.180  0.00  0.00    +0.000 C 
BRANCH  32  33
ATOM     33  C   UNL     1     -20.435   3.151 -22.592  0.00  0.00    +0.000 C 
ATOM     34  C   UNL     1     -19.582   1.937 -22.963  0.00  0.00    +0.000 C 
ATOM     35  C   UNL     1     -21.462   2.781 -21.520  0.00  0.00    +0.000 C 
ENDBRANCH  32  33
ENDBRANCH  19  32
ENDBRANCH  18  19
ENDBRANCH  15  18
ENDBRANCH   1  15
BRANCH   1  36
ATOM     36  C   UNL     1     -23.256   5.992 -21.085  0.00  0.00    +0.000 C 
BRANCH  36  37
ATOM     37  C   UNL     1     -24.544   6.521 -20.506  0.00  0.00    +0.000 A 
ATOM     38  C   UNL     1     -25.767   6.018 -20.951  0.00  0.00    +0.000 A 
ATOM     39  C   UNL     1     -24.514   7.512 -19.526  0.00  0.00    +0.000 A 
ATOM     40  C   UNL     1     -26.958   6.507 -20.417  0.00  0.00    +0.000 A 
ATOM     41  C   UNL     1     -25.706   8.002 -18.990  0.00  0.00    +0.000 A 
ATOM     42  C   UNL     1     -26.928   7.498 -19.436  0.00  0.00    +0.000 A 
ENDBRANCH  36  37
ENDBRANCH   1  36
TORSDOF 14
ENDMDL
MODEL 3
REMARK VINA RESULT:    -6.664      1.848      2.451
REMARK INTER + INTRA:         -14.549
REMARK INTER:                 -11.885
REMARK INTRA:                  -2.663
REMARK UNBOUND:                -2.820
REMARK  Name = 213039
REMARK  16 active torsions:
REMARK  status: ('A' for Active; 'I' for Inactive)
REMARK    1  A    between atoms: S_1  and  N_10
REMARK    2  A    between atoms: S_1  and  C_26
REMARK    3  A    between atoms: O_4  and  C_14
REMARK    4  A    between atoms: O_4  and  C_20
REMARK    5  A    between atoms: O_5  and  C_19
REMARK    6  A    between atoms: N_9  and  C_18
REMARK    7  A    between atoms: N_10  and  C_21
REMARK    8  A    between atoms: N_10  and  C_23
REMARK    9  A    between atoms: N_11  and  C_38
REMARK   10  A    between atoms: C_18  and  C_19
REMARK   11  A    between atoms: C_18  and  C_22
REMARK   12  A    between atoms: C_19  and  C_21
REMARK   13  A    between atoms: C_22  and  C_25
REMARK   14  A    between atoms: C_23  and  C_24
REMARK   15  A    between atoms: C_24  and  C_27
REMARK   16  A    between atoms: C_24  and  C_28
REMARK                            x       y       z     vdW  Elec       q    Type
REMARK                         _______ _______ _______ _____ _____    ______ ____
ROOT
ATOM      1  C   UNL     1     -22.001   7.347 -21.337  0.00  0.00    +0.000 C 
ENDROOT
BRANCH   1   3
ATOM      2  O   UNL     1     -23.314   9.589 -22.637  0.00  0.00    +0.000 OA
ATOM      3  N   UNL     1     -22.593   7.384 -22.659  0.00  0.00    +0.000 N 
ATOM      4  C   UNL     1     -23.197   8.500 -23.192  0.00  0.00    +0.000 C 
ATOM      5  H   UNL     1     -22.563   6.566 -23.206  0.00  0.00    +0.000 HD
BRANCH   4   6
ATOM      6  O   UNL     1     -23.654   8.217 -24.448  0.00  0.00    +0.000 OA
BRANCH   6  11
ATOM      7  O   UNL     1     -23.775   6.841 -27.101  0.00  0.00    +0.000 OA
ATOM      8  O   UNL     1     -25.217   8.729 -27.296  0.00  0.00    +0.000 OA
ATOM      9  C   UNL     1     -22.938   9.027 -26.639  0.00  0.00    +0.000 C 
ATOM     10  C   UNL     1     -23.893   8.213 -27.496  0.00  0.00    +0.000 C 
ATOM     11  C   UNL     1     -22.661   8.110 -25.460  0.00  0.00    +0.000 C 
ATOM     12  C   UNL     1     -23.696  10.305 -26.382  0.00  0.00    +0.000 C 
ATOM     13  C   UNL     1     -22.749   6.741 -26.101  0.00  0.00    +0.000 C 
ATOM     14  C   UNL     1     -25.149   9.885 -26.455  0.00  0.00    +0.000 C 
ENDBRANCH   6  11
ENDBRANCH   4   6
ENDBRANCH   1   3
BRANCH   1  15
ATOM     15  C   UNL     1     -20.494   7.017 -21.422  0.00  0.00    +0.000 C 
BRANCH  15  16
ATOM     16  O   UNL     1     -19.746   8.088 -20.846  0.00  0.00    +0.000 OA
ATOM     17  H   UNL     1     -20.276   8.516 -20.154  0.00  0.00    +0.000 HD
ENDBRANCH  15  16
BRANCH  15  18
ATOM     18  C   UNL     1     -20.027   6.790 -22.862  0.00  0.00    +0.000 C 
BRANCH  18  19
ATOM     19  N   UNL     1     -19.904   5.338 -23.126  0.00  0.00    +0.000 NA
BRANCH  19  20
ATOM     20  S   UNL     1     -18.931   4.841 -24.463  0.00  0.00    +0.000 S 
ATOM     21  O   UNL     1     -18.861   5.916 -25.435  0.00  0.00    +0.000 OA
ATOM     22  O   UNL     1     -19.338   3.516 -24.894  0.00  0.00    +0.000 OA
BRANCH  20  23
ATOM     23  C   UNL     1     -17.324   4.686 -23.735  0.00  0.00    +0.000 A 
ATOM     24  C   UNL     1     -16.669   5.815 -23.245  0.00  0.00    +0.000 A 
ATOM     25  C   UNL     1     -16.715   3.434 -23.651  0.00  0.00    +0.000 A 
ATOM     26  C   UNL     1     -15.403   5.693 -22.670  0.00  0.00    +0.000 A 
ATOM     27  C   UNL     1     -15.449   3.311 -23.076  0.00  0.00    +0.000 A 
ATOM     28  C   UNL     1     -14.794   4.441 -22.586  0.00  0.00    +0.000 A 
BRANCH  28  29
ATOM     29  N   UNL     1     -13.515   4.317 -22.005  0.00  0.00    +0.000 N 
ATOM     30  H   UNL     1     -13.008   3.479 -22.104  0.00  0.00    +0.000 HD
ATOM     31  H   UNL     1     -13.129   5.069 -21.499  0.00  0.00    +0.000 HD
ENDBRANCH  28  29
ENDBRANCH  20  23
ENDBRANCH  19  20
BRANCH  19  32
ATOM     32  C   UNL     1     -19.808   4.547 -21.872  0.00  0.00    +0.000 C 
BRANCH  32  33
ATOM     33  C   UNL     1     -20.916   3.490 -21.779  0.00  0.00    +0.000 C 
ATOM     34  C   UNL     1     -22.057   3.758 -22.762  0.00  0.00    +0.000 C 
ATOM     35  C   UNL     1     -20.372   2.072 -21.957  0.00  0.00    +0.000 C 
ENDBRANCH  32  33
ENDBRANCH  19  32
ENDBRANCH  18  19
ENDBRANCH  15  18
ENDBRANCH   1  15
BRANCH   1  36
ATOM     36  C   UNL     1     -22.800   6.361 -20.462  0.00  0.00    +0.000 C 
BRANCH  36  37
ATOM     37  C   UNL     1     -24.256   6.725 -20.304  0.00  0.00    +0.000 A 
ATOM     38  C   UNL     1     -24.615   7.867 -19.589  0.00  0.00    +0.000 A 
ATOM     39  C   UNL     1     -25.241   5.920 -20.873  0.00  0.00    +0.000 A 
ATOM     40  C   UNL     1     -25.960   8.203 -19.442  0.00  0.00    +0.000 A 
ATOM     41  C   UNL     1     -26.588   6.256 -20.726  0.00  0.00    +0.000 A 
ATOM     42  C   UNL     1     -26.947   7.399 -20.011  0.00  0.00    +0.000 A 
ENDBRANCH  36  37
ENDBRANCH   1  36
TORSDOF 14
ENDMDL
MODEL 4
REMARK VINA RESULT:    -6.469      2.666      7.054
REMARK INTER + INTRA:         -14.204
REMARK INTER:                 -11.431
REMARK INTRA:                  -2.774
REMARK UNBOUND:                -2.820
REMARK  Name = 213039
REMARK  16 active torsions:
REMARK  status: ('A' for Active; 'I' for Inactive)
REMARK    1  A    between atoms: S_1  and  N_10
REMARK    2  A    between atoms: S_1  and  C_26
REMARK    3  A    between atoms: O_4  and  C_14
REMARK    4  A    between atoms: O_4  and  C_20
REMARK    5  A    between atoms: O_5  and  C_19
REMARK    6  A    between atoms: N_9  and  C_18
REMARK    7  A    between atoms: N_10  and  C_21
REMARK    8  A    between atoms: N_10  and  C_23
REMARK    9  A    between atoms: N_11  and  C_38
REMARK   10  A    between atoms: C_18  and  C_19
REMARK   11  A    between atoms: C_18  and  C_22
REMARK   12  A    between atoms: C_19  and  C_21
REMARK   13  A    between atoms: C_22  and  C_25
REMARK   14  A    between atoms: C_23  and  C_24
REMARK   15  A    between atoms: C_24  and  C_27
REMARK   16  A    between atoms: C_24  and  C_28
REMARK                            x       y       z     vdW  Elec       q    Type
REMARK                         _______ _______ _______ _____ _____    ______ ____
ROOT
ATOM      1  C   UNL     1     -19.293   5.563 -22.803  0.00  0.00    +0.000 C 
ENDROOT
BRANCH   1   3
ATOM      2  O   UNL     1     -20.328   5.278 -20.104  0.00  0.00    +0.000 OA
ATOM      3  N   UNL     1     -20.676   5.431 -22.393  0.00  0.00    +0.000 N 
ATOM      4  C   UNL     1     -21.071   5.300 -21.080  0.00  0.00    +0.000 C 
ATOM      5  H   UNL     1     -21.372   5.434 -23.089  0.00  0.00    +0.000 HD
BRANCH   4   6
ATOM      6  O   UNL     1     -22.432   5.197 -21.021  0.00  0.00    +0.000 OA
BRANCH   6  11
ATOM      7  O   UNL     1     -25.315   4.806 -21.715  0.00  0.00    +0.000 OA
ATOM      8  O   UNL     1     -25.288   6.498 -20.037  0.00  0.00    +0.000 OA
ATOM      9  C   UNL     1     -24.002   6.772 -22.033  0.00  0.00    +0.000 C 
ATOM     10  C   UNL     1     -25.285   6.213 -21.443  0.00  0.00    +0.000 C 
ATOM     11  C   UNL     1     -23.132   5.538 -22.209  0.00  0.00    +0.000 C 
ATOM     12  C   UNL     1     -23.570   7.805 -21.023  0.00  0.00    +0.000 C 
ATOM     13  C   UNL     1     -24.164   4.469 -22.504  0.00  0.00    +0.000 C 
ATOM     14  C   UNL     1     -24.144   7.298 -19.718  0.00  0.00    +0.000 C 
ENDBRANCH   6  11
ENDBRANCH   4   6
ENDBRANCH   1   3
BRANCH   1  15
ATOM     15  C   UNL     1     -19.160   6.587 -23.953  0.00  0.00    +0.000 C 
BRANCH  15  16
ATOM     16  O   UNL     1     -18.267   7.627 -23.554  0.00  0.00    +0.000 OA
ATOM     17  H   UNL     1     -17.845   7.385 -22.714  0.00  0.00    +0.000 HD
ENDBRANCH  15  16
BRANCH  15  18
ATOM     18  C   UNL     1     -20.507   7.198 -24.348  0.00  0.00    +0.000 C 
BRANCH  18  19
ATOM     19  N   UNL     1     -21.014   6.545 -25.576  0.00  0.00    +0.000 NA
BRANCH  19  20
ATOM     20  S   UNL     1     -22.539   7.064 -26.196  0.00  0.00    +0.000 S 
ATOM     21  O   UNL     1     -23.604   6.360 -25.505  0.00  0.00    +0.000 OA
ATOM     22  O   UNL     1     -22.503   7.055 -27.647  0.00  0.00    +0.000 OA
BRANCH  20  23
ATOM     23  C   UNL     1     -22.609   8.757 -25.682  0.00  0.00    +0.000 A 
ATOM     24  C   UNL     1     -21.903   9.729 -26.389  0.00  0.00    +0.000 A 
ATOM     25  C   UNL     1     -23.370   9.117 -24.570  0.00  0.00    +0.000 A 
ATOM     26  C   UNL     1     -21.959  11.064 -25.985  0.00  0.00    +0.000 A 
ATOM     27  C   UNL     1     -23.426  10.452 -24.166  0.00  0.00    +0.000 A 
ATOM     28  C   UNL     1     -22.720  11.424 -24.873  0.00  0.00    +0.000 A 
BRANCH  28  29
ATOM     29  N   UNL     1     -22.776  12.773 -24.465  0.00  0.00    +0.000 N 
ATOM     30  H   UNL     1     -23.294  13.425 -24.991  0.00  0.00    +0.000 HD
ATOM     31  H   UNL     1     -22.298  13.063 -23.655  0.00  0.00    +0.000 HD
ENDBRANCH  28  29
ENDBRANCH  20  23
ENDBRANCH  19  20
BRANCH  19  32
ATOM     32  C   UNL     1     -19.929   6.273 -26.554  0.00  0.00    +0.000 C 
BRANCH  32  33
ATOM     33  C   UNL     1     -19.707   4.768 -26.754  0.00  0.00    +0.000 C 
ATOM     34  C   UNL     1     -20.737   4.149 -27.699  0.00  0.00    +0.000 C 
ATOM     35  C   UNL     1     -18.286   4.455 -27.226  0.00  0.00    +0.000 C 
ENDBRANCH  32  33
ENDBRANCH  19  32
ENDBRANCH  18  19
ENDBRANCH  15  18
ENDBRANCH   1  15
BRANCH   1  36
ATOM     36  C   UNL     1     -18.743   4.167 -23.154  0.00  0.00    +0.000 C 
BRANCH  36  37
ATOM     37  C   UNL     1     -17.237   4.088 -23.171  0.00  0.00    +0.000 A 
ATOM     38  C   UNL     1     -16.489   4.866 -22.288  0.00  0.00    +0.000 A 
ATOM     39  C   UNL     1     -16.593   3.239 -24.070  0.00  0.00    +0.000 A 
ATOM     40  C   UNL     1     -15.096   4.794 -22.304  0.00  0.00    +0.000 A 
ATOM     41  C   UNL     1     -15.200   3.166 -24.085  0.00  0.00    +0.000 A 
ATOM     42  C   UNL     1     -14.451   3.944 -23.202  0.00  0.00    +0.000 A 
ENDBRANCH  36  37
ENDBRANCH   1  36
TORSDOF 14
ENDMDL
MODEL 5
REMARK VINA RESULT:    -6.463      2.521      6.312
REMARK INTER + INTRA:         -14.194
REMARK INTER:                 -10.327
REMARK INTRA:                  -3.867
REMARK UNBOUND:                -2.820
REMARK  Name = 213039
REMARK  16 active torsions:
REMARK  status: ('A' for Active; 'I' for Inactive)
REMARK    1  A    between atoms: S_1  and  N_10
REMARK    2  A    between atoms: S_1  and  C_26
REMARK    3  A    between atoms: O_4  and  C_14
REMARK    4  A    between atoms: O_4  and  C_20
REMARK    5  A    between atoms: O_5  and  C_19
REMARK    6  A    between atoms: N_9  and  C_18
REMARK    7  A    between atoms: N_10  and  C_21
REMARK    8  A    between atoms: N_10  and  C_23
REMARK    9  A    between atoms: N_11  and  C_38
REMARK   10  A    between atoms: C_18  and  C_19
REMARK   11  A    between atoms: C_18  and  C_22
REMARK   12  A    between atoms: C_19  and  C_21
REMARK   13  A    between atoms: C_22  and  C_25
REMARK   14  A    between atoms: C_23  and  C_24
REMARK   15  A    between atoms: C_24  and  C_27
REMARK   16  A    between atoms: C_24  and  C_28
REMARK                            x       y       z     vdW  Elec       q    Type
REMARK                         _______ _______ _______ _____ _____    ______ ____
ROOT
ATOM      1  C   UNL     1     -22.857   6.173 -21.250  0.00  0.00    +0.000 C 
ENDROOT
BRANCH   1   3
ATOM      2  O   UNL     1     -20.482   5.115 -19.954  0.00  0.00    +0.000 OA
ATOM      3  N   UNL     1     -21.531   6.020 -21.815  0.00  0.00    +0.000 N 
ATOM      4  C   UNL     1     -20.461   5.505 -21.118  0.00  0.00    +0.000 C 
ATOM      5  H   UNL     1     -21.387   6.299 -22.748  0.00  0.00    +0.000 HD
BRANCH   4   6
ATOM      6  O   UNL     1     -19.356   5.490 -21.922  0.00  0.00    +0.000 OA
BRANCH   6  11
ATOM      7  O   UNL     1     -19.112   3.524 -24.163  0.00  0.00    +0.000 OA
ATOM      8  O   UNL     1     -17.875   5.439 -24.857  0.00  0.00    +0.000 OA
ATOM      9  C   UNL     1     -17.362   4.372 -22.781  0.00  0.00    +0.000 C 
ATOM     10  C   UNL     1     -17.828   4.160 -24.211  0.00  0.00    +0.000 C 
ATOM     11  C   UNL     1     -18.645   4.261 -21.976  0.00  0.00    +0.000 C 
ATOM     12  C   UNL     1     -16.669   5.711 -22.831  0.00  0.00    +0.000 C 
ATOM     13  C   UNL     1     -19.439   3.261 -22.790  0.00  0.00    +0.000 C 
ATOM     14  C   UNL     1     -17.362   6.435 -23.965  0.00  0.00    +0.000 C 
ENDBRANCH   6  11
ENDBRANCH   4   6
ENDBRANCH   1   3
BRANCH   1  15
ATOM     15  C   UNL     1     -23.925   5.585 -22.198  0.00  0.00    +0.000 C 
BRANCH  15  16
ATOM     16  O   UNL     1     -24.319   4.299 -21.721  0.00  0.00    +0.000 OA
ATOM     17  H   UNL     1     -25.155   4.377 -21.234  0.00  0.00    +0.000 HD
ENDBRANCH  15  16
BRANCH  15  18
ATOM     18  C   UNL     1     -23.422   5.460 -23.638  0.00  0.00    +0.000 C 
BRANCH  18  19
ATOM     19  N   UNL     1     -23.630   6.738 -24.356  0.00  0.00    +0.000 NA
BRANCH  19  20
ATOM     20  S   UNL     1     -22.308   7.381 -25.261  0.00  0.00    +0.000 S 
ATOM     21  O   UNL     1     -22.458   7.018 -26.658  0.00  0.00    +0.000 OA
ATOM     22  O   UNL     1     -21.062   7.084 -24.577  0.00  0.00    +0.000 OA
BRANCH  20  23
ATOM     23  C   UNL     1     -22.570   9.128 -25.140  0.00  0.00    +0.000 A 
ATOM     24  C   UNL     1     -22.845   9.707 -23.901  0.00  0.00    +0.000 A 
ATOM     25  C   UNL     1     -22.500   9.924 -26.283  0.00  0.00    +0.000 A 
ATOM     26  C   UNL     1     -23.050  11.084 -23.806  0.00  0.00    +0.000 A 
ATOM     27  C   UNL     1     -22.705  11.301 -26.187  0.00  0.00    +0.000 A 
ATOM     28  C   UNL     1     -22.981  11.880 -24.949  0.00  0.00    +0.000 A 
BRANCH  28  29
ATOM     29  N   UNL     1     -23.188  13.272 -24.852  0.00  0.00    +0.000 N 
ATOM     30  H   UNL     1     -23.039  13.848 -25.637  0.00  0.00    +0.000 HD
ATOM     31  H   UNL     1     -23.481  13.668 -24.000  0.00  0.00    +0.000 HD
ENDBRANCH  28  29
ENDBRANCH  20  23
ENDBRANCH  19  20
BRANCH  19  32
ATOM     32  C   UNL     1     -24.986   6.827 -24.959  0.00  0.00    +0.000 C 
BRANCH  32  33
ATOM     33  C   UNL     1     -25.879   7.821 -24.206  0.00  0.00    +0.000 C 
ATOM     34  C   UNL     1     -26.343   8.975 -25.096  0.00  0.00    +0.000 C 
ATOM     35  C   UNL     1     -27.076   7.133 -23.548  0.00  0.00    +0.000 C 
ENDBRANCH  32  33
ENDBRANCH  19  32
ENDBRANCH  18  19
ENDBRANCH  15  18
ENDBRANCH   1  15
BRANCH   1  36
ATOM     36  C   UNL     1     -23.083   7.659 -20.911  0.00  0.00    +0.000 C 
BRANCH  36  37
ATOM     37  C   UNL     1     -24.502   7.989 -20.522  0.00  0.00    +0.000 A 
ATOM     38  C   UNL     1     -25.223   7.114 -19.708  0.00  0.00    +0.000 A 
ATOM     39  C   UNL     1     -25.094   9.167 -20.974  0.00  0.00    +0.000 A 
ATOM     40  C   UNL     1     -26.535   7.418 -19.349  0.00  0.00    +0.000 A 
ATOM     41  C   UNL     1     -26.408   9.471 -20.615  0.00  0.00    +0.000 A 
ATOM     42  C   UNL     1     -27.128   8.597 -19.801  0.00  0.00    +0.000 A 
ENDBRANCH  36  37
ENDBRANCH   1  36
TORSDOF 14
ENDMDL
MODEL 6
REMARK VINA RESULT:    -6.416      2.407      6.897
REMARK INTER + INTRA:         -14.111
REMARK INTER:                 -11.064
REMARK INTRA:                  -3.047
REMARK UNBOUND:                -2.820
REMARK  Name = 213039
REMARK  16 active torsions:
REMARK  status: ('A' for Active; 'I' for Inactive)
REMARK    1  A    between atoms: S_1  and  N_10
REMARK    2  A    between atoms: S_1  and  C_26
REMARK    3  A    between atoms: O_4  and  C_14
REMARK    4  A    between atoms: O_4  and  C_20
REMARK    5  A    between atoms: O_5  and  C_19
REMARK    6  A    between atoms: N_9  and  C_18
REMARK    7  A    between atoms: N_10  and  C_21
REMARK    8  A    between atoms: N_10  and  C_23
REMARK    9  A    between atoms: N_11  and  C_38
REMARK   10  A    between atoms: C_18  and  C_19
REMARK   11  A    between atoms: C_18  and  C_22
REMARK   12  A    between atoms: C_19  and  C_21
REMARK   13  A    between atoms: C_22  and  C_25
REMARK   14  A    between atoms: C_23  and  C_24
REMARK   15  A    between atoms: C_24  and  C_27
REMARK   16  A    between atoms: C_24  and  C_28
REMARK                            x       y       z     vdW  Elec       q    Type
REMARK                         _______ _______ _______ _____ _____    ______ ____
ROOT
ATOM      1  C   UNL     1     -18.557   6.200 -23.144  0.00  0.00    +0.000 C 
ENDROOT
BRANCH   1   3
ATOM      2  O   UNL     1     -19.726   7.920 -21.116  0.00  0.00    +0.000 OA
ATOM      3  N   UNL     1     -19.961   6.465 -22.908  0.00  0.00    +0.000 N 
ATOM      4  C   UNL     1     -20.422   7.301 -21.916  0.00  0.00    +0.000 C 
ATOM      5  H   UNL     1     -20.623   6.023 -23.488  0.00  0.00    +0.000 HD
BRANCH   4   6
ATOM      6  O   UNL     1     -21.787   7.342 -21.950  0.00  0.00    +0.000 OA
BRANCH   6  11
ATOM      7  O   UNL     1     -22.944   6.508 -19.321  0.00  0.00    +0.000 OA
ATOM      8  O   UNL     1     -24.362   8.251 -20.117  0.00  0.00    +0.000 OA
ATOM      9  C   UNL     1     -23.956   6.325 -21.473  0.00  0.00    +0.000 C 
ATOM     10  C   UNL     1     -24.131   6.836 -20.053  0.00  0.00    +0.000 C 
ATOM     11  C   UNL     1     -22.453   6.139 -21.594  0.00  0.00    +0.000 C 
ATOM     12  C   UNL     1     -24.609   7.392 -22.315  0.00  0.00    +0.000 C 
ATOM     13  C   UNL     1     -22.071   5.758 -20.179  0.00  0.00    +0.000 C 
ATOM     14  C   UNL     1     -24.456   8.651 -21.488  0.00  0.00    +0.000 C 
ENDBRANCH   6  11
ENDBRANCH   4   6
ENDBRANCH   1   3
BRANCH   1  15
ATOM     15  C   UNL     1     -18.170   6.562 -24.596  0.00  0.00    +0.000 C 
BRANCH  15  16
ATOM     16  O   UNL     1     -17.167   7.578 -24.574  0.00  0.00    +0.000 OA
ATOM     17  H   UNL     1     -16.305   7.177 -24.377  0.00  0.00    +0.000 HD
ENDBRANCH  15  16
BRANCH  15  18
ATOM     18  C   UNL     1     -19.367   7.050 -25.415  0.00  0.00    +0.000 C 
BRANCH  18  19
ATOM     19  N   UNL     1     -20.063   5.893 -26.024  0.00  0.00    +0.000 NA
BRANCH  19  20
ATOM     20  S   UNL     1     -21.787   5.932 -26.093  0.00  0.00    +0.000 S 
ATOM     21  O   UNL     1     -22.331   5.374 -24.870  0.00  0.00    +0.000 OA
ATOM     22  O   UNL     1     -22.234   5.414 -27.374  0.00  0.00    +0.000 OA
BRANCH  20  23
ATOM     23  C   UNL     1     -22.134   7.669 -26.079  0.00  0.00    +0.000 A 
ATOM     24  C   UNL     1     -22.478   8.300 -24.884  0.00  0.00    +0.000 A 
ATOM     25  C   UNL     1     -22.064   8.404 -27.262  0.00  0.00    +0.000 A 
ATOM     26  C   UNL     1     -22.750   9.669 -24.872  0.00  0.00    +0.000 A 
ATOM     27  C   UNL     1     -22.337   9.772 -27.250  0.00  0.00    +0.000 A 
ATOM     28  C   UNL     1     -22.680  10.404 -26.055  0.00  0.00    +0.000 A 
BRANCH  28  29
ATOM     29  N   UNL     1     -22.955  11.788 -26.043  0.00  0.00    +0.000 N 
ATOM     30  H   UNL     1     -22.553  12.375 -26.724  0.00  0.00    +0.000 HD
ATOM     31  H   UNL     1     -23.548  12.165 -25.354  0.00  0.00    +0.000 HD
ENDBRANCH  28  29
ENDBRANCH  20  23
ENDBRANCH  19  20
BRANCH  19  32
ATOM     32  C   UNL     1     -19.337   5.364 -27.208  0.00  0.00    +0.000 C 
BRANCH  32  33
ATOM     33  C   UNL     1     -19.088   3.855 -27.096  0.00  0.00    +0.000 C 
ATOM     34  C   UNL     1     -17.619   3.490 -27.315  0.00  0.00    +0.000 C 
ATOM     35  C   UNL     1     -19.593   3.287 -25.768  0.00  0.00    +0.000 C 
ENDBRANCH  32  33
ENDBRANCH  19  32
ENDBRANCH  18  19
ENDBRANCH  15  18
ENDBRANCH   1  15
BRANCH   1  36
ATOM     36  C   UNL     1     -18.259   4.734 -22.775  0.00  0.00    +0.000 C 
BRANCH  36  37
ATOM     37  C   UNL     1     -16.807   4.350 -22.915  0.00  0.00    +0.000 A 
ATOM     38  C   UNL     1     -16.442   3.299 -23.756  0.00  0.00    +0.000 A 
ATOM     39  C   UNL     1     -15.830   5.046 -22.204  0.00  0.00    +0.000 A 
ATOM     40  C   UNL     1     -15.100   2.943 -23.885  0.00  0.00    +0.000 A 
ATOM     41  C   UNL     1     -14.487   4.691 -22.334  0.00  0.00    +0.000 A 
ATOM     42  C   UNL     1     -14.122   3.639 -23.175  0.00  0.00    +0.000 A 
ENDBRANCH  36  37
ENDBRANCH   1  36
TORSDOF 14
ENDMDL
MODEL 7
REMARK VINA RESULT:    -6.403      8.490     12.987
REMARK INTER + INTRA:         -14.089
REMARK INTER:                 -11.368
REMARK INTRA:                  -2.720
REMARK UNBOUND:                -2.820
REMARK  Name = 213039
REMARK  16 active torsions:
REMARK  status: ('A' for Active; 'I' for Inactive)
REMARK    1  A    between atoms: S_1  and  N_10
REMARK    2  A    between atoms: S_1  and  C_26
REMARK    3  A    between atoms: O_4  and  C_14
REMARK    4  A    between atoms: O_4  and  C_20
REMARK    5  A    between atoms: O_5  and  C_19
REMARK    6  A    between atoms: N_9  and  C_18
REMARK    7  A    between atoms: N_10  and  C_21
REMARK    8  A    between atoms: N_10  and  C_23
REMARK    9  A    between atoms: N_11  and  C_38
REMARK   10  A    between atoms: C_18  and  C_19
REMARK   11  A    between atoms: C_18  and  C_22
REMARK   12  A    between atoms: C_19  and  C_21
REMARK   13  A    between atoms: C_22  and  C_25
REMARK   14  A    between atoms: C_23  and  C_24
REMARK   15  A    between atoms: C_24  and  C_27
REMARK   16  A    between atoms: C_24  and  C_28
REMARK                            x       y       z     vdW  Elec       q    Type
REMARK                         _______ _______ _______ _____ _____    ______ ____
ROOT
ATOM      1  C   UNL     1     -28.150  13.805 -19.106  0.00  0.00    +0.000 C 
ENDROOT
BRANCH   1   3
ATOM      2  O   UNL     1     -27.828  11.063 -18.205  0.00  0.00    +0.000 OA
ATOM      3  N   UNL     1     -27.200  12.820 -19.583  0.00  0.00    +0.000 N 
ATOM      4  C   UNL     1     -27.123  11.536 -19.091  0.00  0.00    +0.000 C 
ATOM      5  H   UNL     1     -26.576  13.082 -20.298  0.00  0.00    +0.000 HD
BRANCH   4   6
ATOM      6  O   UNL     1     -26.133  10.856 -19.741  0.00  0.00    +0.000 OA
BRANCH   6  11
ATOM      7  O   UNL     1     -24.397   9.656 -21.860  0.00  0.00    +0.000 OA
ATOM      8  O   UNL     1     -24.311   8.134 -20.028  0.00  0.00    +0.000 OA
ATOM      9  C   UNL     1     -26.419   8.761 -20.964  0.00  0.00    +0.000 C 
ATOM     10  C   UNL     1     -24.956   8.479 -21.262  0.00  0.00    +0.000 C 
ATOM     11  C   UNL     1     -26.494  10.278 -20.988  0.00  0.00    +0.000 C 
ATOM     12  C   UNL     1     -26.652   8.060 -19.650  0.00  0.00    +0.000 C 
ATOM     13  C   UNL     1     -25.443  10.626 -22.021  0.00  0.00    +0.000 C 
ATOM     14  C   UNL     1     -25.291   8.069 -18.987  0.00  0.00    +0.000 C 
ENDBRANCH   6  11
ENDBRANCH   4   6
ENDBRANCH   1   3
BRANCH   1  15
ATOM     15  C   UNL     1     -29.168  14.162 -20.212  0.00  0.00    +0.000 C 
BRANCH  15  16
ATOM     16  O   UNL     1     -29.791  12.965 -20.680  0.00  0.00    +0.000 OA
ATOM     17  H   UNL     1     -29.918  13.021 -21.640  0.00  0.00    +0.000 HD
ENDBRANCH  15  16
BRANCH  15  18
ATOM     18  C   UNL     1     -28.517  14.889 -21.392  0.00  0.00    +0.000 C 
BRANCH  18  19
ATOM     19  N   UNL     1     -29.073  16.257 -21.506  0.00  0.00    +0.000 NA
BRANCH  19  20
ATOM     20  S   UNL     1     -28.020  17.513 -22.048  0.00  0.00    +0.000 S 
ATOM     21  O   UNL     1     -28.786  18.501 -22.785  0.00  0.00    +0.000 OA
ATOM     22  O   UNL     1     -26.838  16.929 -22.656  0.00  0.00    +0.000 OA
BRANCH  20  23
ATOM     23  C   UNL     1     -27.509  18.270 -20.530  0.00  0.00    +0.000 A 
ATOM     24  C   UNL     1     -26.161  18.275 -20.173  0.00  0.00    +0.000 A 
ATOM     25  C   UNL     1     -28.456  18.860 -19.693  0.00  0.00    +0.000 A 
ATOM     26  C   UNL     1     -25.759  18.872 -18.978  0.00  0.00    +0.000 A 
ATOM     27  C   UNL     1     -28.053  19.458 -18.497  0.00  0.00    +0.000 A 
ATOM     28  C   UNL     1     -26.705  19.463 -18.140  0.00  0.00    +0.000 A 
BRANCH  28  29
ATOM     29  N   UNL     1     -26.298  20.067 -16.932  0.00  0.00    +0.000 N 
ATOM     30  H   UNL     1     -26.924  20.123 -16.174  0.00  0.00    +0.000 HD
ATOM     31  H   UNL     1     -25.388  20.433 -16.847  0.00  0.00    +0.000 HD
ENDBRANCH  28  29
ENDBRANCH  20  23
ENDBRANCH  19  20
BRANCH  19  32
ATOM     32  C   UNL     1     -30.466  16.254 -22.024  0.00  0.00    +0.000 C 
BRANCH  32  33
ATOM     33  C   UNL     1     -30.555  15.607 -23.412  0.00  0.00    +0.000 C 
ATOM     34  C   UNL     1     -31.429  14.352 -23.412  0.00  0.00    +0.000 C 
ATOM     35  C   UNL     1     -31.032  16.596 -24.477  0.00  0.00    +0.000 C 
ENDBRANCH  32  33
ENDBRANCH  19  32
ENDBRANCH  18  19
ENDBRANCH  15  18
ENDBRANCH   1  15
BRANCH   1  36
ATOM     36  C   UNL     1     -27.374  15.022 -18.567  0.00  0.00    +0.000 C 
BRANCH  36  37
ATOM     37  C   UNL     1     -27.356  15.119 -17.061  0.00  0.00    +0.000 A 
ATOM     38  C   UNL     1     -26.762  16.217 -16.440  0.00  0.00    +0.000 A 
ATOM     39  C   UNL     1     -27.934  14.111 -16.291  0.00  0.00    +0.000 A 
ATOM     40  C   UNL     1     -26.746  16.306 -15.049  0.00  0.00    +0.000 A 
ATOM     41  C   UNL     1     -27.919  14.200 -14.899  0.00  0.00    +0.000 A 
ATOM     42  C   UNL     1     -27.324  15.299 -14.278  0.00  0.00    +0.000 A 
ENDBRANCH  36  37
ENDBRANCH   1  36
TORSDOF 14
ENDMDL
MODEL 8
REMARK VINA RESULT:    -6.377      2.846      5.835
REMARK INTER + INTRA:         -14.042
REMARK INTER:                  -9.848
REMARK INTRA:                  -4.194
REMARK UNBOUND:                -2.820
REMARK  Name = 213039
REMARK  16 active torsions:
REMARK  status: ('A' for Active; 'I' for Inactive)
REMARK    1  A    between atoms: S_1  and  N_10
REMARK    2  A    between atoms: S_1  and  C_26
REMARK    3  A    between atoms: O_4  and  C_14
REMARK    4  A    between atoms: O_4  and  C_20
REMARK    5  A    between atoms: O_5  and  C_19
REMARK    6  A    between atoms: N_9  and  C_18
REMARK    7  A    between atoms: N_10  and  C_21
REMARK    8  A    between atoms: N_10  and  C_23
REMARK    9  A    between atoms: N_11  and  C_38
REMARK   10  A    between atoms: C_18  and  C_19
REMARK   11  A    between atoms: C_18  and  C_22
REMARK   12  A    between atoms: C_19  and  C_21
REMARK   13  A    between atoms: C_22  and  C_25
REMARK   14  A    between atoms: C_23  and  C_24
REMARK   15  A    between atoms: C_24  and  C_27
REMARK   16  A    between atoms: C_24  and  C_28
REMARK                            x       y       z     vdW  Elec       q    Type
REMARK                         _______ _______ _______ _____ _____    ______ ____
ROOT
ATOM      1  C   UNL     1     -22.367   4.500 -22.013  0.00  0.00    +0.000 C 
ENDROOT
BRANCH   1   3
ATOM      2  O   UNL     1     -21.481   7.236 -21.608  0.00  0.00    +0.000 OA
ATOM      3  N   UNL     1     -23.052   5.558 -21.297  0.00  0.00    +0.000 N 
ATOM      4  C   UNL     1     -22.549   6.832 -21.158  0.00  0.00    +0.000 C 
ATOM      5  H   UNL     1     -23.924   5.356 -20.888  0.00  0.00    +0.000 HD
BRANCH   4   6
ATOM      6  O   UNL     1     -23.424   7.593 -20.435  0.00  0.00    +0.000 OA
BRANCH   6  11
ATOM      7  O   UNL     1     -25.836   8.908 -19.253  0.00  0.00    +0.000 OA
ATOM      8  O   UNL     1     -24.995  10.449 -20.865  0.00  0.00    +0.000 OA
ATOM      9  C   UNL     1     -25.527   8.211 -21.513  0.00  0.00    +0.000 C 
ATOM     10  C   UNL     1     -25.905   9.370 -20.608  0.00  0.00    +0.000 C 
ATOM     11  C   UNL     1     -24.798   7.261 -20.578  0.00  0.00    +0.000 C 
ATOM     12  C   UNL     1     -24.735   8.868 -22.615  0.00  0.00    +0.000 C 
ATOM     13  C   UNL     1     -25.509   7.510 -19.265  0.00  0.00    +0.000 C 
ATOM     14  C   UNL     1     -24.136  10.090 -21.952  0.00  0.00    +0.000 C 
ENDBRANCH   6  11
ENDBRANCH   4   6
ENDBRANCH   1   3
BRANCH   1  15
ATOM     15  C   UNL     1     -23.347   3.361 -22.371  0.00  0.00    +0.000 C 
BRANCH  15  16
ATOM     16  O   UNL     1     -23.313   2.372 -21.341  0.00  0.00    +0.000 OA
ATOM     17  H   UNL     1     -24.218   2.087 -21.137  0.00  0.00    +0.000 HD
ENDBRANCH  15  16
BRANCH  15  18
ATOM     18  C   UNL     1     -23.016   2.706 -23.714  0.00  0.00    +0.000 C 
BRANCH  18  19
ATOM     19  N   UNL     1     -23.064   3.720 -24.792  0.00  0.00    +0.000 NA
BRANCH  19  20
ATOM     20  S   UNL     1     -21.937   3.570 -26.092  0.00  0.00    +0.000 S 
ATOM     21  O   UNL     1     -22.605   3.870 -27.345  0.00  0.00    +0.000 OA
ATOM     22  O   UNL     1     -21.200   2.327 -25.956  0.00  0.00    +0.000 OA
BRANCH  20  23
ATOM     23  C   UNL     1     -20.802   4.891 -25.772  0.00  0.00    +0.000 A 
ATOM     24  C   UNL     1     -19.539   4.883 -26.363  0.00  0.00    +0.000 A 
ATOM     25  C   UNL     1     -21.172   5.939 -24.929  0.00  0.00    +0.000 A 
ATOM     26  C   UNL     1     -18.645   5.924 -26.112  0.00  0.00    +0.000 A 
ATOM     27  C   UNL     1     -20.277   6.981 -24.679  0.00  0.00    +0.000 A 
ATOM     28  C   UNL     1     -19.014   6.973 -25.269  0.00  0.00    +0.000 A 
BRANCH  28  29
ATOM     29  N   UNL     1     -18.111   8.026 -25.016  0.00  0.00    +0.000 N 
ATOM     30  H   UNL     1     -17.934   8.311 -24.091  0.00  0.00    +0.000 HD
ATOM     31  H   UNL     1     -17.657   8.475 -25.765  0.00  0.00    +0.000 HD
ENDBRANCH  28  29
ENDBRANCH  20  23
ENDBRANCH  19  20
BRANCH  19  32
ATOM     32  C   UNL     1     -24.457   4.112 -25.129  0.00  0.00    +0.000 C 
BRANCH  32  33
ATOM     33  C   UNL     1     -24.764   5.550 -24.691  0.00  0.00    +0.000 C 
ATOM     34  C   UNL     1     -24.685   6.541 -25.854  0.00  0.00    +0.000 C 
ATOM     35  C   UNL     1     -26.115   5.658 -23.982  0.00  0.00    +0.000 C 
ENDBRANCH  32  33
ENDBRANCH  19  32
ENDBRANCH  18  19
ENDBRANCH  15  18
ENDBRANCH   1  15
BRANCH   1  36
ATOM     36  C   UNL     1     -21.160   4.035 -21.175  0.00  0.00    +0.000 C 
BRANCH  36  37
ATOM     37  C   UNL     1     -19.885   3.891 -21.968  0.00  0.00    +0.000 A 
ATOM     38  C   UNL     1     -18.906   4.882 -21.899  0.00  0.00    +0.000 A 
ATOM     39  C   UNL     1     -19.684   2.767 -22.768  0.00  0.00    +0.000 A 
ATOM     40  C   UNL     1     -17.727   4.749 -22.632  0.00  0.00    +0.000 A 
ATOM     41  C   UNL     1     -18.505   2.634 -23.502  0.00  0.00    +0.000 A 
ATOM     42  C   UNL     1     -17.526   3.625 -23.433  0.00  0.00    +0.000 A 
ENDBRANCH  36  37
ENDBRANCH   1  36
TORSDOF 14
ENDMDL
MODEL 9
REMARK VINA RESULT:    -6.223      2.868      5.644
REMARK INTER + INTRA:         -13.772
REMARK INTER:                 -10.108
REMARK INTRA:                  -3.663
REMARK UNBOUND:                -2.820
REMARK  Name = 213039
REMARK  16 active torsions:
REMARK  status: ('A' for Active; 'I' for Inactive)
REMARK    1  A    between atoms: S_1  and  N_10
REMARK    2  A    between atoms: S_1  and  C_26
REMARK    3  A    between atoms: O_4  and  C_14
REMARK    4  A    between atoms: O_4  and  C_20
REMARK    5  A    between atoms: O_5  and  C_19
REMARK    6  A    between atoms: N_9  and  C_18
REMARK    7  A    between atoms: N_10  and  C_21
REMARK    8  A    between atoms: N_10  and  C_23
REMARK    9  A    between atoms: N_11  and  C_38
REMARK   10  A    between atoms: C_18  and  C_19
REMARK   11  A    between atoms: C_18  and  C_22
REMARK   12  A    between atoms: C_19  and  C_21
REMARK   13  A    between atoms: C_22  and  C_25
REMARK   14  A    between atoms: C_23  and  C_24
REMARK   15  A    between atoms: C_24  and  C_27
REMARK   16  A    between atoms: C_24  and  C_28
REMARK                            x       y       z     vdW  Elec       q    Type
REMARK                         _______ _______ _______ _____ _____    ______ ____
ROOT
ATOM      1  C   UNL     1     -21.957   4.618 -21.993  0.00  0.00    +0.000 C 
ENDROOT
BRANCH   1   3
ATOM      2  O   UNL     1     -24.173   6.108 -23.136  0.00  0.00    +0.000 OA
ATOM      3  N   UNL     1     -23.014   5.315 -21.289  0.00  0.00    +0.000 N 
ATOM      4  C   UNL     1     -24.028   5.998 -21.922  0.00  0.00    +0.000 C 
ATOM      5  H   UNL     1     -23.008   5.300 -20.305  0.00  0.00    +0.000 HD
BRANCH   4   6
ATOM      6  O   UNL     1     -24.863   6.545 -20.989  0.00  0.00    +0.000 OA
BRANCH   6  11
ATOM      7  O   UNL     1     -25.014   9.480 -21.539  0.00  0.00    +0.000 OA
ATOM      8  O   UNL     1     -27.228   8.829 -20.942  0.00  0.00    +0.000 OA
ATOM      9  C   UNL     1     -25.407   8.373 -19.463  0.00  0.00    +0.000 C 
ATOM     10  C   UNL     1     -25.972   9.348 -20.482  0.00  0.00    +0.000 C 
ATOM     11  C   UNL     1     -24.334   7.634 -20.246  0.00  0.00    +0.000 C 
ATOM     12  C   UNL     1     -26.616   7.595 -19.009  0.00  0.00    +0.000 C 
ATOM     13  C   UNL     1     -23.854   8.704 -21.204  0.00  0.00    +0.000 C 
ATOM     14  C   UNL     1     -27.548   7.647 -20.201  0.00  0.00    +0.000 C 
ENDBRANCH   6  11
ENDBRANCH   4   6
ENDBRANCH   1   3
BRANCH   1  15
ATOM     15  C   UNL     1     -22.430   3.216 -22.438  0.00  0.00    +0.000 C 
BRANCH  15  16
ATOM     16  O   UNL     1     -22.631   2.401 -21.283  0.00  0.00    +0.000 OA
ATOM     17  H   UNL     1     -23.525   2.546 -20.937  0.00  0.00    +0.000 HD
ENDBRANCH  15  16
BRANCH  15  18
ATOM     18  C   UNL     1     -21.430   2.532 -23.373  0.00  0.00    +0.000 C 
BRANCH  18  19
ATOM     19  N   UNL     1     -21.606   3.039 -24.754  0.00  0.00    +0.000 NA
BRANCH  19  20
ATOM     20  S   UNL     1     -20.208   3.137 -25.762  0.00  0.00    +0.000 S 
ATOM     21  O   UNL     1     -20.551   2.704 -27.104  0.00  0.00    +0.000 OA
ATOM     22  O   UNL     1     -19.077   2.530 -25.085  0.00  0.00    +0.000 OA
BRANCH  20  23
ATOM     23  C   UNL     1     -19.905   4.880 -25.834  0.00  0.00    +0.000 A 
ATOM     24  C   UNL     1     -20.889   5.776 -25.418  0.00  0.00    +0.000 A 
ATOM     25  C   UNL     1     -18.681   5.356 -26.306  0.00  0.00    +0.000 A 
ATOM     26  C   UNL     1     -20.649   7.150 -25.473  0.00  0.00    +0.000 A 
ATOM     27  C   UNL     1     -18.441   6.729 -26.361  0.00  0.00    +0.000 A 
ATOM     28  C   UNL     1     -19.426   7.626 -25.945  0.00  0.00    +0.000 A 
BRANCH  28  29
ATOM     29  N   UNL     1     -19.183   9.014 -26.000  0.00  0.00    +0.000 N 
ATOM     30  H   UNL     1     -18.830   9.420 -26.825  0.00  0.00    +0.000 HD
ATOM     31  H   UNL     1     -19.367   9.577 -25.214  0.00  0.00    +0.000 HD
ENDBRANCH  28  29
ENDBRANCH  20  23
ENDBRANCH  19  20
BRANCH  19  32
ATOM     32  C   UNL     1     -22.869   2.557 -25.370  0.00  0.00    +0.000 C 
BRANCH  32  33
ATOM     33  C   UNL     1     -23.816   3.715 -25.707  0.00  0.00    +0.000 C 
ATOM     34  C   UNL     1     -23.830   4.038 -27.202  0.00  0.00    +0.000 C 
ATOM     35  C   UNL     1     -25.236   3.462 -25.198  0.00  0.00    +0.000 C 
ENDBRANCH  32  33
ENDBRANCH  19  32
ENDBRANCH  18  19
ENDBRANCH  15  18
ENDBRANCH   1  15
BRANCH   1  36
ATOM     36  C   UNL     1     -20.700   4.591 -21.101  0.00  0.00    +0.000 C 
BRANCH  36  37
ATOM     37  C   UNL     1     -19.458   5.112 -21.778  0.00  0.00    +0.000 A 
ATOM     38  C   UNL     1     -19.347   6.469 -22.083  0.00  0.00    +0.000 A 
ATOM     39  C   UNL     1     -18.420   4.239 -22.100  0.00  0.00    +0.000 A 
ATOM     40  C   UNL     1     -18.199   6.951 -22.710  0.00  0.00    +0.000 A 
ATOM     41  C   UNL     1     -17.270   4.721 -22.726  0.00  0.00    +0.000 A 
ATOM     42  C   UNL     1     -17.160   6.078 -23.031  0.00  0.00    +0.000 A 
ENDBRANCH  36  37
ENDBRANCH   1  36
TORSDOF 14
ENDMDL
