MODEL 1
REMARK VINA RESULT:    -5.748      0.000      0.000
REMARK INTER + INTRA:          -6.291
REMARK INTER:                  -6.084
REMARK INTRA:                  -0.207
REMARK UNBOUND:                -0.207
REMARK  Name = 3194
REMARK  1 active torsions:
REMARK  status: ('A' for Active; 'I' for Inactive)
REMARK    1  A    between atoms: N_3  and  C_7
REMARK                            x       y       z     vdW  Elec       q    Type
REMARK                         _______ _______ _______ _____ _____    ______ ____
ROOT
ATOM      1 SE   UNL     1     -20.122   5.495 -21.259  0.00  0.00    +0.000 Se
ATOM      2  O   UNL     1     -18.484   6.495 -23.406  0.00  0.00    +0.000 OA
ATOM      3  N   UNL     1     -18.143   4.747 -21.993  0.00  0.00    +0.000 N 
ATOM      4  C   UNL     1     -20.098   6.058 -21.815  0.00  0.00    +0.000 A 
ATOM      5  C   UNL     1     -20.489   5.243 -20.748  0.00  0.00    +0.000 A 
ATOM      6  C   UNL     1     -18.888   5.783 -22.445  0.00  0.00    +0.000 A 
ATOM      7  C   UNL     1     -20.932   7.121 -22.214  0.00  0.00    +0.000 A 
ATOM      8  C   UNL     1     -21.694   5.476 -20.082  0.00  0.00    +0.000 A 
ATOM      9  C   UNL     1     -22.139   7.354 -21.545  0.00  0.00    +0.000 A 
ATOM     10  C   UNL     1     -22.520   6.532 -20.481  0.00  0.00    +0.000 A 
ENDROOT
BRANCH   3  11
ATOM     11  C   UNL     1     -16.924   4.286 -22.591  0.00  0.00    +0.000 A 
ATOM     12  C   UNL     1     -16.927   3.261 -23.555  0.00  0.00    +0.000 A 
ATOM     13  C   UNL     1     -15.705   4.826 -22.163  0.00  0.00    +0.000 A 
ATOM     14  C   UNL     1     -15.721   2.809 -24.101  0.00  0.00    +0.000 A 
ATOM     15  C   UNL     1     -14.502   4.373 -22.713  0.00  0.00    +0.000 A 
ATOM     16  C   UNL     1     -14.510   3.367 -23.684  0.00  0.00    +0.000 A 
ENDBRANCH   3  11
TORSDOF 1
ENDMDL
MODEL 2
REMARK VINA RESULT:    -5.535     11.240     12.608
REMARK INTER + INTRA:          -6.065
REMARK INTER:                  -5.959
REMARK INTRA:                  -0.106
REMARK UNBOUND:                -0.207
REMARK  Name = 3194
REMARK  1 active torsions:
REMARK  status: ('A' for Active; 'I' for Inactive)
REMARK    1  A    between atoms: N_3  and  C_7
REMARK                            x       y       z     vdW  Elec       q    Type
REMARK                         _______ _______ _______ _____ _____    ______ ____
ROOT
ATOM      1 SE   UNL     1     -28.477   4.904 -31.442  0.00  0.00    +0.000 Se
ATOM      2  O   UNL     1     -27.629   7.640 -31.146  0.00  0.00    +0.000 OA
ATOM      3  N   UNL     1     -26.793   5.738 -30.225  0.00  0.00    +0.000 N 
ATOM      4  C   UNL     1     -28.649   5.640 -31.681  0.00  0.00    +0.000 A 
ATOM      5  C   UNL     1     -28.659   4.254 -31.494  0.00  0.00    +0.000 A 
ATOM      6  C   UNL     1     -27.676   6.385 -31.021  0.00  0.00    +0.000 A 
ATOM      7  C   UNL     1     -29.612   6.231 -32.521  0.00  0.00    +0.000 A 
ATOM      8  C   UNL     1     -29.614   3.460 -32.134  0.00  0.00    +0.000 A 
ATOM      9  C   UNL     1     -30.568   5.434 -33.160  0.00  0.00    +0.000 A 
ATOM     10  C   UNL     1     -30.569   4.050 -32.967  0.00  0.00    +0.000 A 
ENDROOT
BRANCH   3  11
ATOM     11  C   UNL     1     -25.684   6.352 -29.554  0.00  0.00    +0.000 A 
ATOM     12  C   UNL     1     -24.361   6.126 -29.974  0.00  0.00    +0.000 A 
ATOM     13  C   UNL     1     -25.923   7.144 -28.423  0.00  0.00    +0.000 A 
ATOM     14  C   UNL     1     -23.296   6.714 -29.284  0.00  0.00    +0.000 A 
ATOM     15  C   UNL     1     -24.856   7.731 -27.737  0.00  0.00    +0.000 A 
ATOM     16  C   UNL     1     -23.543   7.520 -28.169  0.00  0.00    +0.000 A 
ENDBRANCH   3  11
TORSDOF 1
ENDMDL
MODEL 3
REMARK VINA RESULT:    -5.475      1.334      6.094
REMARK INTER + INTRA:          -6.002
REMARK INTER:                  -5.788
REMARK INTRA:                  -0.214
REMARK UNBOUND:                -0.207
REMARK  Name = 3194
REMARK  1 active torsions:
REMARK  status: ('A' for Active; 'I' for Inactive)
REMARK    1  A    between atoms: N_3  and  C_7
REMARK                            x       y       z     vdW  Elec       q    Type
REMARK                         _______ _______ _______ _____ _____    ______ ____
ROOT
ATOM      1 SE   UNL     1     -16.807   4.652 -22.550  0.00  0.00    +0.000 Se
ATOM      2  O   UNL     1     -19.435   3.607 -23.094  0.00  0.00    +0.000 OA
ATOM      3  N   UNL     1     -18.801   5.427 -21.888  0.00  0.00    +0.000 N 
ATOM      4  C   UNL     1     -17.179   4.065 -22.930  0.00  0.00    +0.000 A 
ATOM      5  C   UNL     1     -16.200   4.915 -22.406  0.00  0.00    +0.000 A 
ATOM      6  C   UNL     1     -18.513   4.349 -22.654  0.00  0.00    +0.000 A 
ATOM      7  C   UNL     1     -16.788   2.959 -23.710  0.00  0.00    +0.000 A 
ATOM      8  C   UNL     1     -14.846   4.674 -22.653  0.00  0.00    +0.000 A 
ATOM      9  C   UNL     1     -15.432   2.719 -23.956  0.00  0.00    +0.000 A 
ATOM     10  C   UNL     1     -14.462   3.576 -23.428  0.00  0.00    +0.000 A 
ENDROOT
BRANCH   3  11
ATOM     11  C   UNL     1     -20.123   5.899 -21.594  0.00  0.00    +0.000 A 
ATOM     12  C   UNL     1     -20.779   6.808 -22.443  0.00  0.00    +0.000 A 
ATOM     13  C   UNL     1     -20.745   5.492 -20.406  0.00  0.00    +0.000 A 
ATOM     14  C   UNL     1     -22.057   7.275 -22.117  0.00  0.00    +0.000 A 
ATOM     15  C   UNL     1     -22.023   5.960 -20.084  0.00  0.00    +0.000 A 
ATOM     16  C   UNL     1     -22.680   6.849 -20.941  0.00  0.00    +0.000 A 
ENDBRANCH   3  11
TORSDOF 1
ENDMDL
MODEL 4
REMARK VINA RESULT:    -5.439      3.003      4.643
REMARK INTER + INTRA:          -5.963
REMARK INTER:                  -5.802
REMARK INTRA:                  -0.161
REMARK UNBOUND:                -0.207
REMARK  Name = 3194
REMARK  1 active torsions:
REMARK  status: ('A' for Active; 'I' for Inactive)
REMARK    1  A    between atoms: N_3  and  C_7
REMARK                            x       y       z     vdW  Elec       q    Type
REMARK                         _______ _______ _______ _____ _____    ______ ____
ROOT
ATOM      1 SE   UNL     1     -24.129   6.988 -20.178  0.00  0.00    +0.000 Se
ATOM      2  O   UNL     1     -23.427   5.089 -22.226  0.00  0.00    +0.000 OA
ATOM      3  N   UNL     1     -22.107   6.461 -20.984  0.00  0.00    +0.000 N 
ATOM      4  C   UNL     1     -24.447   6.461 -20.677  0.00  0.00    +0.000 A 
ATOM      5  C   UNL     1     -24.269   7.442 -19.695  0.00  0.00    +0.000 A 
ATOM      6  C   UNL     1     -23.320   5.967 -21.325  0.00  0.00    +0.000 A 
ATOM      7  C   UNL     1     -25.748   6.010 -20.974  0.00  0.00    +0.000 A 
ATOM      8  C   UNL     1     -25.368   7.971 -19.014  0.00  0.00    +0.000 A 
ATOM      9  C   UNL     1     -26.848   6.542 -20.291  0.00  0.00    +0.000 A 
ATOM     10  C   UNL     1     -26.658   7.521 -19.312  0.00  0.00    +0.000 A 
ENDROOT
BRANCH   3  11
ATOM     11  C   UNL     1     -20.852   5.992 -21.496  0.00  0.00    +0.000 A 
ATOM     12  C   UNL     1     -20.301   4.770 -21.068  0.00  0.00    +0.000 A 
ATOM     13  C   UNL     1     -20.136   6.795 -22.393  0.00  0.00    +0.000 A 
ATOM     14  C   UNL     1     -19.062   4.349 -21.561  0.00  0.00    +0.000 A 
ATOM     15  C   UNL     1     -18.898   6.370 -22.884  0.00  0.00    +0.000 A 
ATOM     16  C   UNL     1     -18.362   5.146 -22.471  0.00  0.00    +0.000 A 
ENDBRANCH   3  11
TORSDOF 1
ENDMDL
MODEL 5
REMARK VINA RESULT:    -5.439      1.150      2.061
REMARK INTER + INTRA:          -5.963
REMARK INTER:                  -5.792
REMARK INTRA:                  -0.172
REMARK UNBOUND:                -0.207
REMARK  Name = 3194
REMARK  1 active torsions:
REMARK  status: ('A' for Active; 'I' for Inactive)
REMARK    1  A    between atoms: N_3  and  C_7
REMARK                            x       y       z     vdW  Elec       q    Type
REMARK                         _______ _______ _______ _____ _____    ______ ____
ROOT
ATOM      1 SE   UNL     1     -20.484   6.514 -21.963  0.00  0.00    +0.000 Se
ATOM      2  O   UNL     1     -19.205   4.111 -21.019  0.00  0.00    +0.000 OA
ATOM      3  N   UNL     1     -18.555   5.586 -22.622  0.00  0.00    +0.000 N 
ATOM      4  C   UNL     1     -20.571   5.923 -21.442  0.00  0.00    +0.000 A 
ATOM      5  C   UNL     1     -20.766   7.081 -22.202  0.00  0.00    +0.000 A 
ATOM      6  C   UNL     1     -19.424   5.170 -21.671  0.00  0.00    +0.000 A 
ATOM      7  C   UNL     1     -21.532   5.560 -20.478  0.00  0.00    +0.000 A 
ATOM      8  C   UNL     1     -21.901   7.872 -22.011  0.00  0.00    +0.000 A 
ATOM      9  C   UNL     1     -22.669   6.353 -20.289  0.00  0.00    +0.000 A 
ATOM     10  C   UNL     1     -22.853   7.508 -21.054  0.00  0.00    +0.000 A 
ENDROOT
BRANCH   3  11
ATOM     11  C   UNL     1     -17.292   4.971 -22.910  0.00  0.00    +0.000 A 
ATOM     12  C   UNL     1     -16.090   5.503 -22.409  0.00  0.00    +0.000 A 
ATOM     13  C   UNL     1     -17.252   3.854 -23.755  0.00  0.00    +0.000 A 
ATOM     14  C   UNL     1     -14.869   4.901 -22.730  0.00  0.00    +0.000 A 
ATOM     15  C   UNL     1     -16.030   3.254 -24.072  0.00  0.00    +0.000 A 
ATOM     16  C   UNL     1     -14.839   3.775 -23.557  0.00  0.00    +0.000 A 
ENDBRANCH   3  11
TORSDOF 1
ENDMDL
MODEL 6
REMARK VINA RESULT:    -5.245     10.918     12.814
REMARK INTER + INTRA:          -5.758
REMARK INTER:                  -5.567
REMARK INTRA:                  -0.192
REMARK UNBOUND:                -0.207
REMARK  Name = 3194
REMARK  1 active torsions:
REMARK  status: ('A' for Active; 'I' for Inactive)
REMARK    1  A    between atoms: N_3  and  C_7
REMARK                            x       y       z     vdW  Elec       q    Type
REMARK                         _______ _______ _______ _____ _____    ______ ____
ROOT
ATOM      1 SE   UNL     1     -25.956   6.536 -29.275  0.00  0.00    +0.000 Se
ATOM      2  O   UNL     1     -25.890   4.778 -31.555  0.00  0.00    +0.000 OA
ATOM      3  N   UNL     1     -27.656   5.562 -30.359  0.00  0.00    +0.000 N 
ATOM      4  C   UNL     1     -25.455   6.188 -29.781  0.00  0.00    +0.000 A 
ATOM      5  C   UNL     1     -25.997   6.946 -28.738  0.00  0.00    +0.000 A 
ATOM      6  C   UNL     1     -26.328   5.486 -30.606  0.00  0.00    +0.000 A 
ATOM      7  C   UNL     1     -24.058   6.159 -29.960  0.00  0.00    +0.000 A 
ATOM      8  C   UNL     1     -25.164   7.669 -27.880  0.00  0.00    +0.000 A 
ATOM      9  C   UNL     1     -23.226   6.883 -29.100  0.00  0.00    +0.000 A 
ATOM     10  C   UNL     1     -23.779   7.638 -28.061  0.00  0.00    +0.000 A 
ENDROOT
BRANCH   3  11
ATOM     11  C   UNL     1     -28.681   4.972 -31.170  0.00  0.00    +0.000 A 
ATOM     12  C   UNL     1     -29.060   3.628 -31.004  0.00  0.00    +0.000 A 
ATOM     13  C   UNL     1     -29.271   5.735 -32.187  0.00  0.00    +0.000 A 
ATOM     14  C   UNL     1     -30.042   3.069 -31.829  0.00  0.00    +0.000 A 
ATOM     15  C   UNL     1     -30.253   5.173 -33.009  0.00  0.00    +0.000 A 
ATOM     16  C   UNL     1     -30.641   3.842 -32.827  0.00  0.00    +0.000 A 
ENDBRANCH   3  11
TORSDOF 1
ENDMDL
MODEL 7
REMARK VINA RESULT:    -5.238      3.413      5.007
REMARK INTER + INTRA:          -5.750
REMARK INTER:                  -5.559
REMARK INTRA:                  -0.192
REMARK UNBOUND:                -0.207
REMARK  Name = 3194
REMARK  1 active torsions:
REMARK  status: ('A' for Active; 'I' for Inactive)
REMARK    1  A    between atoms: N_3  and  C_7
REMARK                            x       y       z     vdW  Elec       q    Type
REMARK                         _______ _______ _______ _____ _____    ______ ____
ROOT
ATOM      1 SE   UNL     1     -24.209   7.581 -20.106  0.00  0.00    +0.000 Se
ATOM      2  O   UNL     1     -22.360   7.597 -22.314  0.00  0.00    +0.000 OA
ATOM      3  N   UNL     1     -22.644   6.075 -20.650  0.00  0.00    +0.000 N 
ATOM      4  C   UNL     1     -23.994   8.009 -20.737  0.00  0.00    +0.000 A 
ATOM      5  C   UNL     1     -24.632   7.557 -19.578  0.00  0.00    +0.000 A 
ATOM      6  C   UNL     1     -22.976   7.229 -21.275  0.00  0.00    +0.000 A 
ATOM      7  C   UNL     1     -24.398   9.228 -21.317  0.00  0.00    +0.000 A 
ATOM      8  C   UNL     1     -25.661   8.302 -18.998  0.00  0.00    +0.000 A 
ATOM      9  C   UNL     1     -25.428   9.974 -20.734  0.00  0.00    +0.000 A 
ATOM     10  C   UNL     1     -26.059   9.511 -19.576  0.00  0.00    +0.000 A 
ENDROOT
BRANCH   3  11
ATOM     11  C   UNL     1     -21.684   5.124 -21.129  0.00  0.00    +0.000 A 
ATOM     12  C   UNL     1     -20.310   5.279 -20.870  0.00  0.00    +0.000 A 
ATOM     13  C   UNL     1     -22.119   4.053 -21.921  0.00  0.00    +0.000 A 
ATOM     14  C   UNL     1     -19.392   4.353 -21.375  0.00  0.00    +0.000 A 
ATOM     15  C   UNL     1     -21.198   3.128 -22.423  0.00  0.00    +0.000 A 
ATOM     16  C   UNL     1     -19.835   3.276 -22.147  0.00  0.00    +0.000 A 
ENDBRANCH   3  11
TORSDOF 1
ENDMDL
MODEL 8
REMARK VINA RESULT:    -5.230      2.638      6.017
REMARK INTER + INTRA:          -5.743
REMARK INTER:                  -5.542
REMARK INTRA:                  -0.201
REMARK UNBOUND:                -0.207
REMARK  Name = 3194
REMARK  1 active torsions:
REMARK  status: ('A' for Active; 'I' for Inactive)
REMARK    1  A    between atoms: N_3  and  C_7
REMARK                            x       y       z     vdW  Elec       q    Type
REMARK                         _______ _______ _______ _____ _____    ______ ____
ROOT
ATOM      1 SE   UNL     1     -16.774   3.473 -23.239  0.00  0.00    +0.000 Se
ATOM      2  O   UNL     1     -18.729   5.168 -21.974  0.00  0.00    +0.000 OA
ATOM      3  N   UNL     1     -19.007   3.300 -23.239  0.00  0.00    +0.000 N 
ATOM      4  C   UNL     1     -16.840   4.122 -22.789  0.00  0.00    +0.000 A 
ATOM      5  C   UNL     1     -16.334   3.062 -23.547  0.00  0.00    +0.000 A 
ATOM      6  C   UNL     1     -18.220   4.224 -22.639  0.00  0.00    +0.000 A 
ATOM      7  C   UNL     1     -15.948   5.044 -22.208  0.00  0.00    +0.000 A 
ATOM      8  C   UNL     1     -14.957   2.915 -23.728  0.00  0.00    +0.000 A 
ATOM      9  C   UNL     1     -14.569   4.895 -22.391  0.00  0.00    +0.000 A 
ATOM     10  C   UNL     1     -14.074   3.831 -23.150  0.00  0.00    +0.000 A 
ENDROOT
BRANCH   3  11
ATOM     11  C   UNL     1     -20.432   3.218 -23.103  0.00  0.00    +0.000 A 
ATOM     12  C   UNL     1     -21.289   3.938 -23.955  0.00  0.00    +0.000 A 
ATOM     13  C   UNL     1     -20.977   2.452 -22.064  0.00  0.00    +0.000 A 
ATOM     14  C   UNL     1     -22.675   3.864 -23.783  0.00  0.00    +0.000 A 
ATOM     15  C   UNL     1     -22.363   2.379 -21.895  0.00  0.00    +0.000 A 
ATOM     16  C   UNL     1     -23.212   3.082 -22.757  0.00  0.00    +0.000 A 
ENDBRANCH   3  11
TORSDOF 1
ENDMDL
MODEL 9
REMARK VINA RESULT:    -5.081     11.150     12.550
REMARK INTER + INTRA:          -5.585
REMARK INTER:                  -5.555
REMARK INTRA:                  -0.030
REMARK UNBOUND:                -0.207
REMARK  Name = 3194
REMARK  1 active torsions:
REMARK  status: ('A' for Active; 'I' for Inactive)
REMARK    1  A    between atoms: N_3  and  C_7
REMARK                            x       y       z     vdW  Elec       q    Type
REMARK                         _______ _______ _______ _____ _____    ______ ____
ROOT
ATOM      1 SE   UNL     1     -28.507   5.809 -31.717  0.00  0.00    +0.000 Se
ATOM      2  O   UNL     1     -26.593   4.089 -30.423  0.00  0.00    +0.000 OA
ATOM      3  N   UNL     1     -26.701   6.358 -30.513  0.00  0.00    +0.000 N 
ATOM      4  C   UNL     1     -28.336   5.044 -31.595  0.00  0.00    +0.000 A 
ATOM      5  C   UNL     1     -28.942   6.233 -32.015  0.00  0.00    +0.000 A 
ATOM      6  C   UNL     1     -27.185   5.131 -30.819  0.00  0.00    +0.000 A 
ATOM      7  C   UNL     1     -28.904   3.810 -31.968  0.00  0.00    +0.000 A 
ATOM      8  C   UNL     1     -30.100   6.201 -32.796  0.00  0.00    +0.000 A 
ATOM      9  C   UNL     1     -30.064   3.780 -32.751  0.00  0.00    +0.000 A 
ATOM     10  C   UNL     1     -30.661   4.974 -33.164  0.00  0.00    +0.000 A 
ENDROOT
BRANCH   3  11
ATOM     11  C   UNL     1     -25.582   6.611 -29.652  0.00  0.00    +0.000 A 
ATOM     12  C   UNL     1     -25.739   7.295 -28.434  0.00  0.00    +0.000 A 
ATOM     13  C   UNL     1     -24.300   6.220 -30.063  0.00  0.00    +0.000 A 
ATOM     14  C   UNL     1     -24.627   7.555 -27.626  0.00  0.00    +0.000 A 
ATOM     15  C   UNL     1     -23.191   6.480 -29.253  0.00  0.00    +0.000 A 
ATOM     16  C   UNL     1     -23.354   7.144 -28.034  0.00  0.00    +0.000 A 
ENDBRANCH   3  11
TORSDOF 1
ENDMDL
