MODEL 1
REMARK VINA RESULT:    -4.345      0.000      0.000
REMARK INTER + INTRA:          -4.852
REMARK INTER:                  -4.599
REMARK INTRA:                  -0.253
REMARK UNBOUND:                -0.253
REMARK  Name = 492405
REMARK  1 active torsions:
REMARK  status: ('A' for Active; 'I' for Inactive)
REMARK    1  A    between atoms: C_7  and  C_11
REMARK                            x       y       z     vdW  Elec       q    Type
REMARK                         _______ _______ _______ _____ _____    ______ ____
ROOT
ATOM      1  F   UNL     1     -26.104   5.209 -31.736  0.00  0.00    +0.000 F 
ATOM      2  O   UNL     1     -31.086   6.819 -32.652  0.00  0.00    +0.000 OA
ATOM      3  N   UNL     1     -28.952   7.340 -31.903  0.00  0.00    +0.000 N 
ATOM      4  N   UNL     1     -28.246   4.709 -32.483  0.00  0.00    +0.000 NA
ATOM      5  C   UNL     1     -29.465   5.102 -32.707  0.00  0.00    +0.000 A 
ATOM      6  C   UNL     1     -29.927   6.515 -32.418  0.00  0.00    +0.000 A 
ATOM      7  C   UNL     1     -27.685   6.891 -31.681  0.00  0.00    +0.000 A 
ATOM      8  C   UNL     1     -27.369   5.626 -31.966  0.00  0.00    +0.000 A 
ATOM      9  H   UNL     1     -29.176   8.274 -31.690  0.00  0.00    +0.000 HD
ENDROOT
BRANCH   5  12
ATOM     10  O   UNL     1     -30.728   3.152 -32.539  0.00  0.00    +0.000 OA
ATOM     11  N   UNL     1     -30.688   4.265 -34.581  0.00  0.00    +0.000 N 
ATOM     12  C   UNL     1     -30.370   4.058 -33.269  0.00  0.00    +0.000 C 
ATOM     13  H   UNL     1     -31.280   3.632 -35.050  0.00  0.00    +0.000 HD
ATOM     14  H   UNL     1     -30.325   5.046 -35.059  0.00  0.00    +0.000 HD
ENDBRANCH   5  12
TORSDOF 1
ENDMDL
MODEL 2
REMARK VINA RESULT:    -4.319     17.309     18.534
REMARK INTER + INTRA:          -4.825
REMARK INTER:                  -4.588
REMARK INTRA:                  -0.237
REMARK UNBOUND:                -0.253
REMARK  Name = 492405
REMARK  1 active torsions:
REMARK  status: ('A' for Active; 'I' for Inactive)
REMARK    1  A    between atoms: C_7  and  C_11
REMARK                            x       y       z     vdW  Elec       q    Type
REMARK                         _______ _______ _______ _____ _____    ______ ____
ROOT
ATOM      1  F   UNL     1     -26.421  16.527 -14.796  0.00  0.00    +0.000 F 
ATOM      2  O   UNL     1     -29.396  12.471 -16.517  0.00  0.00    +0.000 OA
ATOM      3  N   UNL     1     -28.821  13.896 -14.777  0.00  0.00    +0.000 N 
ATOM      4  N   UNL     1     -27.012  15.092 -16.525  0.00  0.00    +0.000 NA
ATOM      5  C   UNL     1     -27.739  14.100 -16.947  0.00  0.00    +0.000 A 
ATOM      6  C   UNL     1     -28.745  13.397 -16.058  0.00  0.00    +0.000 A 
ATOM      7  C   UNL     1     -28.041  14.938 -14.372  0.00  0.00    +0.000 A 
ATOM      8  C   UNL     1     -27.181  15.495 -15.227  0.00  0.00    +0.000 A 
ATOM      9  H   UNL     1     -29.453  13.492 -14.140  0.00  0.00    +0.000 HD
ENDROOT
BRANCH   5  12
ATOM     10  O   UNL     1     -27.959  14.424 -19.243  0.00  0.00    +0.000 OA
ATOM     11  N   UNL     1     -26.793  12.553 -18.503  0.00  0.00    +0.000 N 
ATOM     12  C   UNL     1     -27.508  13.709 -18.367  0.00  0.00    +0.000 C 
ATOM     13  H   UNL     1     -26.585  12.205 -19.401  0.00  0.00    +0.000 HD
ATOM     14  H   UNL     1     -26.486  12.067 -17.703  0.00  0.00    +0.000 HD
ENDBRANCH   5  12
TORSDOF 1
ENDMDL
MODEL 3
REMARK VINA RESULT:    -4.282     13.053     13.991
REMARK INTER + INTRA:          -4.785
REMARK INTER:                  -4.536
REMARK INTRA:                  -0.249
REMARK UNBOUND:                -0.253
REMARK  Name = 492405
REMARK  1 active torsions:
REMARK  status: ('A' for Active; 'I' for Inactive)
REMARK    1  A    between atoms: C_7  and  C_11
REMARK                            x       y       z     vdW  Elec       q    Type
REMARK                         _______ _______ _______ _____ _____    ______ ____
ROOT
ATOM      1  F   UNL     1     -24.874   9.136 -21.638  0.00  0.00    +0.000 F 
ATOM      2  O   UNL     1     -21.395   5.567 -19.789  0.00  0.00    +0.000 OA
ATOM      3  N   UNL     1     -23.514   6.505 -19.660  0.00  0.00    +0.000 N 
ATOM      4  N   UNL     1     -22.758   8.182 -21.752  0.00  0.00    +0.000 NA
ATOM      5  C   UNL     1     -21.907   7.310 -21.300  0.00  0.00    +0.000 A 
ATOM      6  C   UNL     1     -22.241   6.363 -20.166  0.00  0.00    +0.000 A 
ATOM      7  C   UNL     1     -24.379   7.432 -20.160  0.00  0.00    +0.000 A 
ATOM      8  C   UNL     1     -23.995   8.226 -21.163  0.00  0.00    +0.000 A 
ATOM      9  H   UNL     1     -23.806   5.924 -18.921  0.00  0.00    +0.000 HD
ENDROOT
BRANCH   5  12
ATOM     10  O   UNL     1     -20.512   6.863 -23.111  0.00  0.00    +0.000 OA
ATOM     11  N   UNL     1     -19.579   7.841 -21.218  0.00  0.00    +0.000 N 
ATOM     12  C   UNL     1     -20.581   7.313 -21.982  0.00  0.00    +0.000 C 
ATOM     13  H   UNL     1     -18.662   7.891 -21.574  0.00  0.00    +0.000 HD
ATOM     14  H   UNL     1     -19.773   8.173 -20.311  0.00  0.00    +0.000 HD
ENDBRANCH   5  12
TORSDOF 1
ENDMDL
MODEL 4
REMARK VINA RESULT:    -4.256     18.052     19.066
REMARK INTER + INTRA:          -4.758
REMARK INTER:                  -4.535
REMARK INTRA:                  -0.223
REMARK UNBOUND:                -0.253
REMARK  Name = 492405
REMARK  1 active torsions:
REMARK  status: ('A' for Active; 'I' for Inactive)
REMARK    1  A    between atoms: C_7  and  C_11
REMARK                            x       y       z     vdW  Elec       q    Type
REMARK                         _______ _______ _______ _____ _____    ______ ____
ROOT
ATOM      1  F   UNL     1     -26.765  16.267 -18.897  0.00  0.00    +0.000 F 
ATOM      2  O   UNL     1     -27.494  14.780 -13.846  0.00  0.00    +0.000 OA
ATOM      3  N   UNL     1     -26.407  16.168 -15.355  0.00  0.00    +0.000 N 
ATOM      4  N   UNL     1     -27.843  14.888 -17.369  0.00  0.00    +0.000 NA
ATOM      5  C   UNL     1     -28.022  14.524 -16.135  0.00  0.00    +0.000 A 
ATOM      6  C   UNL     1     -27.280  15.170 -14.983  0.00  0.00    +0.000 A 
ATOM      7  C   UNL     1     -26.246  16.522 -16.662  0.00  0.00    +0.000 A 
ATOM      8  C   UNL     1     -26.945  15.894 -17.610  0.00  0.00    +0.000 A 
ATOM      9  H   UNL     1     -25.888  16.636 -14.663  0.00  0.00    +0.000 HD
ENDROOT
BRANCH   5  12
ATOM     10  O   UNL     1     -29.008  12.499 -16.730  0.00  0.00    +0.000 OA
ATOM     11  N   UNL     1     -29.823  13.611 -14.857  0.00  0.00    +0.000 N 
ATOM     12  C   UNL     1     -29.011  13.425 -15.940  0.00  0.00    +0.000 C 
ATOM     13  H   UNL     1     -30.513  12.943 -14.638  0.00  0.00    +0.000 HD
ATOM     14  H   UNL     1     -29.718  14.413 -14.295  0.00  0.00    +0.000 HD
ENDBRANCH   5  12
TORSDOF 1
ENDMDL
MODEL 5
REMARK VINA RESULT:    -4.255     13.856     14.320
REMARK INTER + INTRA:          -4.757
REMARK INTER:                  -4.510
REMARK INTRA:                  -0.247
REMARK UNBOUND:                -0.253
REMARK  Name = 492405
REMARK  1 active torsions:
REMARK  status: ('A' for Active; 'I' for Inactive)
REMARK    1  A    between atoms: C_7  and  C_11
REMARK                            x       y       z     vdW  Elec       q    Type
REMARK                         _______ _______ _______ _____ _____    ______ ____
ROOT
ATOM      1  F   UNL     1     -19.498   2.244 -22.904  0.00  0.00    +0.000 F 
ATOM      2  O   UNL     1     -22.020   5.870 -19.945  0.00  0.00    +0.000 OA
ATOM      3  N   UNL     1     -21.653   3.630 -20.430  0.00  0.00    +0.000 N 
ATOM      4  N   UNL     1     -19.879   4.480 -22.402  0.00  0.00    +0.000 NA
ATOM      5  C   UNL     1     -20.495   5.368 -21.679  0.00  0.00    +0.000 A 
ATOM      6  C   UNL     1     -21.475   4.986 -20.588  0.00  0.00    +0.000 A 
ATOM      7  C   UNL     1     -20.989   2.729 -21.209  0.00  0.00    +0.000 A 
ATOM      8  C   UNL     1     -20.143   3.160 -22.148  0.00  0.00    +0.000 A 
ATOM      9  H   UNL     1     -22.274   3.303 -19.741  0.00  0.00    +0.000 HD
ENDROOT
BRANCH   5  12
ATOM     10  O   UNL     1     -20.124   7.113 -23.176  0.00  0.00    +0.000 OA
ATOM     11  N   UNL     1     -19.940   7.557 -20.900  0.00  0.00    +0.000 N 
ATOM     12  C   UNL     1     -20.164   6.785 -22.004  0.00  0.00    +0.000 C 
ATOM     13  H   UNL     1     -19.713   8.510 -21.004  0.00  0.00    +0.000 HD
ATOM     14  H   UNL     1     -20.005   7.162 -20.001  0.00  0.00    +0.000 HD
ENDBRANCH   5  12
TORSDOF 1
ENDMDL
MODEL 6
REMARK VINA RESULT:    -4.181      2.613      3.508
REMARK INTER + INTRA:          -4.678
REMARK INTER:                  -4.400
REMARK INTRA:                  -0.278
REMARK UNBOUND:                -0.253
REMARK  Name = 492405
REMARK  1 active torsions:
REMARK  status: ('A' for Active; 'I' for Inactive)
REMARK    1  A    between atoms: C_7  and  C_11
REMARK                            x       y       z     vdW  Elec       q    Type
REMARK                         _______ _______ _______ _____ _____    ______ ____
ROOT
ATOM      1  F   UNL     1     -30.942   3.954 -33.373  0.00  0.00    +0.000 F 
ATOM      2  O   UNL     1     -27.707   7.731 -31.495  0.00  0.00    +0.000 OA
ATOM      3  N   UNL     1     -29.839   7.124 -32.182  0.00  0.00    +0.000 N 
ATOM      4  N   UNL     1     -28.815   4.582 -32.681  0.00  0.00    +0.000 NA
ATOM      5  C   UNL     1     -28.023   5.505 -32.222  0.00  0.00    +0.000 A 
ATOM      6  C   UNL     1     -28.503   6.911 -31.925  0.00  0.00    +0.000 A 
ATOM      7  C   UNL     1     -30.638   6.130 -32.664  0.00  0.00    +0.000 A 
ATOM      8  C   UNL     1     -30.125   4.919 -32.896  0.00  0.00    +0.000 A 
ATOM      9  H   UNL     1     -30.226   8.012 -32.013  0.00  0.00    +0.000 HD
ENDROOT
BRANCH   5  12
ATOM     10  O   UNL     1     -26.395   4.175 -31.220  0.00  0.00    +0.000 OA
ATOM     11  N   UNL     1     -25.711   5.777 -32.761  0.00  0.00    +0.000 N 
ATOM     12  C   UNL     1     -26.611   5.074 -32.010  0.00  0.00    +0.000 C 
ATOM     13  H   UNL     1     -24.750   5.572 -32.696  0.00  0.00    +0.000 HD
ATOM     14  H   UNL     1     -26.023   6.487 -33.367  0.00  0.00    +0.000 HD
ENDBRANCH   5  12
TORSDOF 1
ENDMDL
MODEL 7
REMARK VINA RESULT:    -4.168     13.331     13.731
REMARK INTER + INTRA:          -4.665
REMARK INTER:                  -4.387
REMARK INTRA:                  -0.278
REMARK UNBOUND:                -0.253
REMARK  Name = 492405
REMARK  1 active torsions:
REMARK  status: ('A' for Active; 'I' for Inactive)
REMARK    1  A    between atoms: C_7  and  C_11
REMARK                            x       y       z     vdW  Elec       q    Type
REMARK                         _______ _______ _______ _____ _____    ______ ____
ROOT
ATOM      1  F   UNL     1     -20.479   5.307 -19.478  0.00  0.00    +0.000 F 
ATOM      2  O   UNL     1     -23.017   8.871 -22.497  0.00  0.00    +0.000 OA
ATOM      3  N   UNL     1     -21.044   7.750 -22.006  0.00  0.00    +0.000 N 
ATOM      4  N   UNL     1     -22.443   6.439 -19.986  0.00  0.00    +0.000 NA
ATOM      5  C   UNL     1     -23.064   7.311 -20.724  0.00  0.00    +0.000 A 
ATOM      6  C   UNL     1     -22.375   8.066 -21.841  0.00  0.00    +0.000 A 
ATOM      7  C   UNL     1     -20.427   6.831 -21.212  0.00  0.00    +0.000 A 
ATOM      8  C   UNL     1     -21.118   6.215 -20.249  0.00  0.00    +0.000 A 
ATOM      9  H   UNL     1     -20.528   8.199 -22.713  0.00  0.00    +0.000 HD
ENDROOT
BRANCH   5  12
ATOM     10  O   UNL     1     -25.244   6.544 -20.427  0.00  0.00    +0.000 OA
ATOM     11  N   UNL     1     -24.812   8.801 -20.065  0.00  0.00    +0.000 N 
ATOM     12  C   UNL     1     -24.504   7.509 -20.386  0.00  0.00    +0.000 C 
ATOM     13  H   UNL     1     -25.738   9.041 -19.826  0.00  0.00    +0.000 HD
ATOM     14  H   UNL     1     -24.111   9.491 -20.072  0.00  0.00    +0.000 HD
ENDBRANCH   5  12
TORSDOF 1
ENDMDL
MODEL 8
REMARK VINA RESULT:    -4.145     18.182     19.483
REMARK INTER + INTRA:          -4.641
REMARK INTER:                  -4.405
REMARK INTRA:                  -0.236
REMARK UNBOUND:                -0.253
REMARK  Name = 492405
REMARK  1 active torsions:
REMARK  status: ('A' for Active; 'I' for Inactive)
REMARK    1  A    between atoms: C_7  and  C_11
REMARK                            x       y       z     vdW  Elec       q    Type
REMARK                         _______ _______ _______ _____ _____    ______ ____
ROOT
ATOM      1  F   UNL     1     -29.914  13.614 -18.219  0.00  0.00    +0.000 F 
ATOM      2  O   UNL     1     -27.266  14.719 -13.744  0.00  0.00    +0.000 OA
ATOM      3  N   UNL     1     -28.820  13.386 -14.838  0.00  0.00    +0.000 N 
ATOM      4  N   UNL     1     -28.360  14.936 -17.106  0.00  0.00    +0.000 NA
ATOM      5  C   UNL     1     -27.713  15.207 -16.013  0.00  0.00    +0.000 A 
ATOM      6  C   UNL     1     -27.906  14.412 -14.738  0.00  0.00    +0.000 A 
ATOM      7  C   UNL     1     -29.480  13.133 -16.003  0.00  0.00    +0.000 A 
ATOM      8  C   UNL     1     -29.244  13.889 -17.078  0.00  0.00    +0.000 A 
ATOM      9  H   UNL     1     -29.000  12.823 -14.051  0.00  0.00    +0.000 HD
ENDROOT
BRANCH   5  12
ATOM     10  O   UNL     1     -26.079  16.455 -17.108  0.00  0.00    +0.000 OA
ATOM     11  N   UNL     1     -26.799  17.178 -15.018  0.00  0.00    +0.000 N 
ATOM     12  C   UNL     1     -26.767  16.356 -16.109  0.00  0.00    +0.000 C 
ATOM     13  H   UNL     1     -26.212  17.968 -14.980  0.00  0.00    +0.000 HD
ATOM     14  H   UNL     1     -27.408  16.980 -14.270  0.00  0.00    +0.000 HD
ENDBRANCH   5  12
TORSDOF 1
ENDMDL
MODEL 9
REMARK VINA RESULT:    -4.061     15.236     16.237
REMARK INTER + INTRA:          -4.552
REMARK INTER:                  -4.274
REMARK INTRA:                  -0.277
REMARK UNBOUND:                -0.253
REMARK  Name = 492405
REMARK  1 active torsions:
REMARK  status: ('A' for Active; 'I' for Inactive)
REMARK    1  A    between atoms: C_7  and  C_11
REMARK                            x       y       z     vdW  Elec       q    Type
REMARK                         _______ _______ _______ _____ _____    ______ ____
ROOT
ATOM      1  F   UNL     1     -13.280   3.957 -22.455  0.00  0.00    +0.000 F 
ATOM      2  O   UNL     1     -18.283   4.555 -24.149  0.00  0.00    +0.000 OA
ATOM      3  N   UNL     1     -16.552   3.116 -23.584  0.00  0.00    +0.000 N 
ATOM      4  N   UNL     1     -15.027   5.379 -23.024  0.00  0.00    +0.000 NA
ATOM      5  C   UNL     1     -16.250   5.526 -23.438  0.00  0.00    +0.000 A 
ATOM      6  C   UNL     1     -17.143   4.347 -23.764  0.00  0.00    +0.000 A 
ATOM      7  C   UNL     1     -15.265   3.002 -23.148  0.00  0.00    +0.000 A 
ATOM      8  C   UNL     1     -14.553   4.101 -22.886  0.00  0.00    +0.000 A 
ATOM      9  H   UNL     1     -17.069   2.301 -23.774  0.00  0.00    +0.000 HD
ENDROOT
BRANCH   5  12
ATOM     10  O   UNL     1     -16.134   7.659 -24.367  0.00  0.00    +0.000 OA
ATOM     11  N   UNL     1     -17.744   7.255 -22.737  0.00  0.00    +0.000 N 
ATOM     12  C   UNL     1     -16.705   6.941 -23.568  0.00  0.00    +0.000 C 
ATOM     13  H   UNL     1     -18.121   8.165 -22.742  0.00  0.00    +0.000 HD
ATOM     14  H   UNL     1     -18.115   6.571 -22.133  0.00  0.00    +0.000 HD
ENDBRANCH   5  12
TORSDOF 1
ENDMDL
