MODEL 1
REMARK VINA RESULT:    -8.128      0.000      0.000
REMARK INTER + INTRA:         -14.805
REMARK INTER:                 -12.642
REMARK INTRA:                  -2.162
REMARK UNBOUND:                -2.162
REMARK  Name = 6321424
REMARK  21 active torsions:
REMARK  status: ('A' for Active; 'I' for Inactive)
REMARK    1  A    between atoms: O_5  and  C_25
REMARK    2  A    between atoms: O_6  and  C_31
REMARK    3  A    between atoms: O_8  and  C_42
REMARK    4  A    between atoms: O_8  and  C_46
REMARK    5  A    between atoms: O_10  and  C_47
REMARK    6  A    between atoms: O_10  and  C_54
REMARK    7  A    between atoms: O_11  and  C_48
REMARK    8  A    between atoms: O_11  and  C_61
REMARK    9  A    between atoms: O_13  and  C_56
REMARK   10  A    between atoms: O_13  and  C_62
REMARK   11  A    between atoms: O_14  and  C_57
REMARK   12  A    between atoms: C_16  and  C_24
REMARK   13  A    between atoms: C_17  and  C_28
REMARK   14  A    between atoms: C_24  and  C_30
REMARK   15  A    between atoms: C_24  and  C_33
REMARK   16  A    between atoms: C_30  and  C_39
REMARK   17  A    between atoms: C_36  and  C_43
REMARK   18  A    between atoms: C_41  and  C_52
REMARK   19  A    between atoms: C_44  and  C_53
REMARK   20  A    between atoms: C_51  and  C_58
REMARK   21  A    between atoms: C_59  and  C_60
REMARK                            x       y       z     vdW  Elec       q    Type
REMARK                         _______ _______ _______ _____ _____    ______ ____
ROOT
ATOM      1  O   UNL     1     -30.233   6.231 -29.868  0.00  0.00    +0.000 OA
ATOM      2  O   UNL     1     -29.428   4.947 -28.061  0.00  0.00    +0.000 OA
ATOM      3  O   UNL     1     -29.727   8.680 -26.301  0.00  0.00    +0.000 OA
ATOM      4  O   UNL     1     -26.271  12.983 -25.099  0.00  0.00    +0.000 OA
ATOM      5  O   UNL     1     -30.617  10.403 -27.557  0.00  0.00    +0.000 OA
ATOM      6  C   UNL     1     -30.505   5.739 -28.557  0.00  0.00    +0.000 C 
ATOM      7  C   UNL     1     -30.008   5.186 -30.810  0.00  0.00    +0.000 C 
ATOM      8  C   UNL     1     -31.311   4.336 -30.982  0.00  0.00    +0.000 C 
ATOM      9  C   UNL     1     -31.798   4.891 -28.578  0.00  0.00    +0.000 C 
ATOM     10  C   UNL     1     -30.778   6.937 -27.615  0.00  0.00    +0.000 C 
ATOM     11  C   UNL     1     -31.710   3.770 -29.610  0.00  0.00    +0.000 C 
ATOM     12  C   UNL     1     -29.509   7.749 -27.357  0.00  0.00    +0.000 C 
ATOM     13  C   UNL     1     -28.213   5.682 -27.940  0.00  0.00    +0.000 C 
ATOM     14  C   UNL     1     -28.385   6.812 -26.922  0.00  0.00    +0.000 C 
ATOM     15  C   UNL     1     -28.003  11.473 -25.897  0.00  0.00    +0.000 C 
ATOM     16  C   UNL     1     -29.482  11.048 -25.526  0.00  0.00    +0.000 C 
ATOM     17  C   UNL     1     -27.635  12.928 -25.498  0.00  0.00    +0.000 C 
ATOM     18  C   UNL     1     -31.179   3.171 -31.976  0.00  0.00    +0.000 C 
ATOM     19  C   UNL     1     -27.081   4.699 -27.558  0.00  0.00    +0.000 C 
ATOM     20  C   UNL     1     -28.546  13.491 -24.390  0.00  0.00    +0.000 C 
ATOM     21  C   UNL     1     -26.939  10.741 -25.154  0.00  0.00    +0.000 C 
ATOM     22  C   UNL     1     -30.037  10.029 -26.498  0.00  0.00    +0.000 C 
ATOM     23  C   UNL     1     -30.412  12.240 -25.413  0.00  0.00    +0.000 C 
ATOM     24  C   UNL     1     -29.989  13.384 -24.852  0.00  0.00    +0.000 C 
ATOM     25  C   UNL     1     -25.829  11.671 -24.847  0.00  0.00    +0.000 C 
ATOM     26  C   UNL     1     -25.801   5.358 -27.055  0.00  0.00    +0.000 C 
ATOM     27  C   UNL     1     -26.923   9.424 -24.881  0.00  0.00    +0.000 C 
ATOM     28  C   UNL     1     -25.414   5.413 -25.752  0.00  0.00    +0.000 C 
ATOM     29  C   UNL     1     -24.055   6.000 -25.334  0.00  0.00    +0.000 C 
ATOM     30  C   UNL     1     -30.936  14.552 -24.711  0.00  0.00    +0.000 C 
ATOM     31  C   UNL     1     -23.754   7.473 -25.772  0.00  0.00    +0.000 C 
ATOM     32  C   UNL     1     -25.672   8.677 -24.724  0.00  0.00    +0.000 C 
ATOM     33  C   UNL     1     -24.977   8.349 -25.818  0.00  0.00    +0.000 C 
ATOM     34  C   UNL     1     -26.243   4.745 -24.674  0.00  0.00    +0.000 C 
ATOM     35  C   UNL     1     -22.961   7.600 -27.085  0.00  0.00    +0.000 C 
ENDROOT
BRANCH  15  36
ATOM     36  O   UNL     1     -27.768  11.353 -27.283  0.00  0.00    +0.000 OA
ATOM     37  H   UNL     1     -28.281  10.608 -27.634  0.00  0.00    +0.000 HD
ENDBRANCH  15  36
BRANCH  20  38
ATOM     38  O   UNL     1     -28.363  12.771 -23.189  0.00  0.00    +0.000 OA
ATOM     39  H   UNL     1     -29.205  12.720 -22.711  0.00  0.00    +0.000 HD
ENDBRANCH  20  38
BRANCH   7  40
ATOM     40  C   UNL     1     -29.439   5.850 -32.106  0.00  0.00    +0.000 C 
ATOM     41  C   UNL     1     -30.526   6.499 -32.984  0.00  0.00    +0.000 C 
BRANCH  40  42
ATOM     42  C   UNL     1     -28.261   6.832 -31.881  0.00  0.00    +0.000 C 
ATOM     43  C   UNL     1     -26.962   6.123 -31.487  0.00  0.00    +0.000 C 
ENDBRANCH  40  42
ENDBRANCH   7  40
BRANCH  29  44
ATOM     44  O   UNL     1     -23.023   5.132 -25.785  0.00  0.00    +0.000 OA
BRANCH  44  46
ATOM     45  O   UNL     1     -23.047   4.720 -23.533  0.00  0.00    +0.000 OA
ATOM     46  C   UNL     1     -22.319   4.496 -24.728  0.00  0.00    +0.000 C 
ATOM     47  C   UNL     1     -20.961   4.582 -22.183  0.00  0.00    +0.000 C 
ATOM     48  C   UNL     1     -20.137   4.497 -23.484  0.00  0.00    +0.000 C 
ATOM     49  C   UNL     1     -20.921   5.125 -24.638  0.00  0.00    +0.000 C 
ATOM     50  C   UNL     1     -22.434   4.129 -22.394  0.00  0.00    +0.000 C 
ATOM     51  C   UNL     1     -22.628   2.602 -22.358  0.00  0.00    +0.000 C 
BRANCH  48  52
ATOM     52  O   UNL     1     -19.847   3.148 -23.805  0.00  0.00    +0.000 OA
ATOM     53  C   UNL     1     -18.493   2.847 -23.545  0.00  0.00    +0.000 C 
ENDBRANCH  48  52
BRANCH  47  54
ATOM     54  O   UNL     1     -20.941   5.930 -21.741  0.00  0.00    +0.000 OA
BRANCH  54  56
ATOM     55  O   UNL     1     -22.218   7.715 -22.405  0.00  0.00    +0.000 OA
ATOM     56  C   UNL     1     -22.238   6.502 -21.662  0.00  0.00    +0.000 C 
ATOM     57  C   UNL     1     -22.632   6.661 -20.176  0.00  0.00    +0.000 C 
ATOM     58  C   UNL     1     -24.006   7.344 -20.051  0.00  0.00    +0.000 C 
ATOM     59  C   UNL     1     -24.197   8.441 -21.130  0.00  0.00    +0.000 C 
ATOM     60  C   UNL     1     -22.845   8.825 -21.777  0.00  0.00    +0.000 C 
ATOM     61  C   UNL     1     -23.037   9.917 -22.834  0.00  0.00    +0.000 C 
BRANCH  58  62
ATOM     62  O   UNL     1     -25.033   6.378 -20.212  0.00  0.00    +0.000 OA
ATOM     63  C   UNL     1     -25.737   6.577 -21.418  0.00  0.00    +0.000 C 
ENDBRANCH  58  62
BRANCH  59  64
ATOM     64  O   UNL     1     -24.788   9.577 -20.549  0.00  0.00    +0.000 OA
ATOM     65  H   UNL     1     -24.102  10.237 -20.362  0.00  0.00    +0.000 HD
ENDBRANCH  59  64
ENDBRANCH  54  56
ENDBRANCH  47  54
ENDBRANCH  44  46
ENDBRANCH  29  44
TORSDOF 11
ENDMDL
MODEL 2
REMARK VINA RESULT:    -8.012      1.696      2.440
REMARK INTER + INTRA:         -14.624
REMARK INTER:                 -12.649
REMARK INTRA:                  -1.976
REMARK UNBOUND:                -2.162
REMARK  Name = 6321424
REMARK  21 active torsions:
REMARK  status: ('A' for Active; 'I' for Inactive)
REMARK    1  A    between atoms: O_5  and  C_25
REMARK    2  A    between atoms: O_6  and  C_31
REMARK    3  A    between atoms: O_8  and  C_42
REMARK    4  A    between atoms: O_8  and  C_46
REMARK    5  A    between atoms: O_10  and  C_47
REMARK    6  A    between atoms: O_10  and  C_54
REMARK    7  A    between atoms: O_11  and  C_48
REMARK    8  A    between atoms: O_11  and  C_61
REMARK    9  A    between atoms: O_13  and  C_56
REMARK   10  A    between atoms: O_13  and  C_62
REMARK   11  A    between atoms: O_14  and  C_57
REMARK   12  A    between atoms: C_16  and  C_24
REMARK   13  A    between atoms: C_17  and  C_28
REMARK   14  A    between atoms: C_24  and  C_30
REMARK   15  A    between atoms: C_24  and  C_33
REMARK   16  A    between atoms: C_30  and  C_39
REMARK   17  A    between atoms: C_36  and  C_43
REMARK   18  A    between atoms: C_41  and  C_52
REMARK   19  A    between atoms: C_44  and  C_53
REMARK   20  A    between atoms: C_51  and  C_58
REMARK   21  A    between atoms: C_59  and  C_60
REMARK                            x       y       z     vdW  Elec       q    Type
REMARK                         _______ _______ _______ _____ _____    ______ ____
ROOT
ATOM      1  O   UNL     1     -30.363   6.087 -29.202  0.00  0.00    +0.000 OA
ATOM      2  O   UNL     1     -29.023   4.720 -27.824  0.00  0.00    +0.000 OA
ATOM      3  O   UNL     1     -28.577   8.388 -25.963  0.00  0.00    +0.000 OA
ATOM      4  O   UNL     1     -24.785  12.575 -25.912  0.00  0.00    +0.000 OA
ATOM      5  O   UNL     1     -29.792  10.175 -26.782  0.00  0.00    +0.000 OA
ATOM      6  C   UNL     1     -30.180   5.551 -27.892  0.00  0.00    +0.000 C 
ATOM      7  C   UNL     1     -30.512   5.074 -30.192  0.00  0.00    +0.000 C 
ATOM      8  C   UNL     1     -31.819   4.256 -29.926  0.00  0.00    +0.000 C 
ATOM      9  C   UNL     1     -31.426   4.729 -27.488  0.00  0.00    +0.000 C 
ATOM     10  C   UNL     1     -30.072   6.718 -26.880  0.00  0.00    +0.000 C 
ATOM     11  C   UNL     1     -31.736   3.648 -28.518  0.00  0.00    +0.000 C 
ATOM     12  C   UNL     1     -28.768   7.494 -27.055  0.00  0.00    +0.000 C 
ATOM     13  C   UNL     1     -27.819   5.426 -28.112  0.00  0.00    +0.000 C 
ATOM     14  C   UNL     1     -27.593   6.520 -27.065  0.00  0.00    +0.000 C 
ATOM     15  C   UNL     1     -26.733  11.131 -26.103  0.00  0.00    +0.000 C 
ATOM     16  C   UNL     1     -28.005  10.721 -25.254  0.00  0.00    +0.000 C 
ATOM     17  C   UNL     1     -26.204  12.561 -25.815  0.00  0.00    +0.000 C 
ATOM     18  C   UNL     1     -32.077   3.128 -30.937  0.00  0.00    +0.000 C 
ATOM     19  C   UNL     1     -26.656   4.408 -28.174  0.00  0.00    +0.000 C 
ATOM     20  C   UNL     1     -26.656  13.100 -24.443  0.00  0.00    +0.000 C 
ATOM     21  C   UNL     1     -25.501  10.350 -25.796  0.00  0.00    +0.000 C 
ATOM     22  C   UNL     1     -28.893   9.750 -26.002  0.00  0.00    +0.000 C 
ATOM     23  C   UNL     1     -28.800  11.925 -24.790  0.00  0.00    +0.000 C 
ATOM     24  C   UNL     1     -28.173  13.039 -24.378  0.00  0.00    +0.000 C 
ATOM     25  C   UNL     1     -24.325  11.246 -25.867  0.00  0.00    +0.000 C 
ATOM     26  C   UNL     1     -25.261   5.021 -28.129  0.00  0.00    +0.000 C 
ATOM     27  C   UNL     1     -25.433   9.024 -25.584  0.00  0.00    +0.000 C 
ATOM     28  C   UNL     1     -24.446   5.020 -27.040  0.00  0.00    +0.000 C 
ATOM     29  C   UNL     1     -23.008   5.564 -27.103  0.00  0.00    +0.000 C 
ATOM     30  C   UNL     1     -28.975  14.218 -23.884  0.00  0.00    +0.000 C 
ATOM     31  C   UNL     1     -22.831   7.047 -27.576  0.00  0.00    +0.000 C 
ATOM     32  C   UNL     1     -24.229   8.247 -25.893  0.00  0.00    +0.000 C 
ATOM     33  C   UNL     1     -23.967   7.948 -27.169  0.00  0.00    +0.000 C 
ATOM     34  C   UNL     1     -24.870   4.328 -25.761  0.00  0.00    +0.000 C 
ATOM     35  C   UNL     1     -22.539   7.208 -29.078  0.00  0.00    +0.000 C 
ENDROOT
BRANCH  15  36
ATOM     36  O   UNL     1     -26.996  11.058 -27.487  0.00  0.00    +0.000 OA
ATOM     37  H   UNL     1     -26.345  11.592 -27.968  0.00  0.00    +0.000 HD
ENDBRANCH  15  36
BRANCH  20  38
ATOM     38  O   UNL     1     -26.092  12.332 -23.402  0.00  0.00    +0.000 OA
ATOM     39  H   UNL     1     -26.205  11.389 -23.598  0.00  0.00    +0.000 HD
ENDBRANCH  20  38
BRANCH   7  40
ATOM     40  C   UNL     1     -30.406   5.775 -31.586  0.00  0.00    +0.000 C 
ATOM     41  C   UNL     1     -31.263   7.052 -31.690  0.00  0.00    +0.000 C 
BRANCH  40  42
ATOM     42  C   UNL     1     -28.962   6.045 -32.080  0.00  0.00    +0.000 C 
ATOM     43  C   UNL     1     -28.007   4.885 -31.788  0.00  0.00    +0.000 C 
ENDBRANCH  40  42
ENDBRANCH   7  40
BRANCH  29  44
ATOM     44  O   UNL     1     -22.224   4.694 -27.909  0.00  0.00    +0.000 OA
BRANCH  44  46
ATOM     45  O   UNL     1     -21.591   3.817 -25.891  0.00  0.00    +0.000 OA
ATOM     46  C   UNL     1     -21.145   4.095 -27.207  0.00  0.00    +0.000 C 
ATOM     47  C   UNL     1     -19.275   4.043 -25.008  0.00  0.00    +0.000 C 
ATOM     48  C   UNL     1     -18.800   4.502 -26.403  0.00  0.00    +0.000 C 
ATOM     49  C   UNL     1     -19.976   5.090 -27.185  0.00  0.00    +0.000 C 
ATOM     50  C   UNL     1     -20.589   3.213 -25.083  0.00  0.00    +0.000 C 
ATOM     51  C   UNL     1     -20.370   1.732 -25.441  0.00  0.00    +0.000 C 
BRANCH  48  52
ATOM     52  O   UNL     1     -18.262   3.413 -27.131  0.00  0.00    +0.000 OA
ATOM     53  C   UNL     1     -17.554   3.865 -28.265  0.00  0.00    +0.000 C 
ENDBRANCH  48  52
BRANCH  47  54
ATOM     54  O   UNL     1     -19.494   5.202 -24.219  0.00  0.00    +0.000 OA
BRANCH  54  56
ATOM     55  O   UNL     1     -21.241   6.251 -23.167  0.00  0.00    +0.000 OA
ATOM     56  C   UNL     1     -20.524   5.026 -23.258  0.00  0.00    +0.000 C 
ATOM     57  C   UNL     1     -19.899   4.544 -21.929  0.00  0.00    +0.000 C 
ATOM     58  C   UNL     1     -20.979   4.409 -20.841  0.00  0.00    +0.000 C 
ATOM     59  C   UNL     1     -22.043   5.531 -20.952  0.00  0.00    +0.000 C 
ATOM     60  C   UNL     1     -21.538   6.687 -21.847  0.00  0.00    +0.000 C 
ATOM     61  C   UNL     1     -22.587   7.799 -21.945  0.00  0.00    +0.000 C 
BRANCH  58  62
ATOM     62  O   UNL     1     -21.636   3.159 -20.976  0.00  0.00    +0.000 OA
ATOM     63  C   UNL     1     -20.785   2.194 -21.556  0.00  0.00    +0.000 C 
ENDBRANCH  58  62
BRANCH  59  64
ATOM     64  O   UNL     1     -22.349   6.020 -19.669  0.00  0.00    +0.000 OA
ATOM     65  H   UNL     1     -21.573   6.473 -19.303  0.00  0.00    +0.000 HD
ENDBRANCH  59  64
ENDBRANCH  54  56
ENDBRANCH  47  54
ENDBRANCH  44  46
ENDBRANCH  29  44
TORSDOF 11
ENDMDL
MODEL 3
REMARK VINA RESULT:    -7.980      3.996      9.904
REMARK INTER + INTRA:         -14.575
REMARK INTER:                 -13.028
REMARK INTRA:                  -1.547
REMARK UNBOUND:                -2.162
REMARK  Name = 6321424
REMARK  21 active torsions:
REMARK  status: ('A' for Active; 'I' for Inactive)
REMARK    1  A    between atoms: O_5  and  C_25
REMARK    2  A    between atoms: O_6  and  C_31
REMARK    3  A    between atoms: O_8  and  C_42
REMARK    4  A    between atoms: O_8  and  C_46
REMARK    5  A    between atoms: O_10  and  C_47
REMARK    6  A    between atoms: O_10  and  C_54
REMARK    7  A    between atoms: O_11  and  C_48
REMARK    8  A    between atoms: O_11  and  C_61
REMARK    9  A    between atoms: O_13  and  C_56
REMARK   10  A    between atoms: O_13  and  C_62
REMARK   11  A    between atoms: O_14  and  C_57
REMARK   12  A    between atoms: C_16  and  C_24
REMARK   13  A    between atoms: C_17  and  C_28
REMARK   14  A    between atoms: C_24  and  C_30
REMARK   15  A    between atoms: C_24  and  C_33
REMARK   16  A    between atoms: C_30  and  C_39
REMARK   17  A    between atoms: C_36  and  C_43
REMARK   18  A    between atoms: C_41  and  C_52
REMARK   19  A    between atoms: C_44  and  C_53
REMARK   20  A    between atoms: C_51  and  C_58
REMARK   21  A    between atoms: C_59  and  C_60
REMARK                            x       y       z     vdW  Elec       q    Type
REMARK                         _______ _______ _______ _____ _____    ______ ____
ROOT
ATOM      1  O   UNL     1     -20.231   6.529 -25.241  0.00  0.00    +0.000 OA
ATOM      2  O   UNL     1     -21.707   7.002 -23.464  0.00  0.00    +0.000 OA
ATOM      3  O   UNL     1     -24.304   5.331 -26.217  0.00  0.00    +0.000 OA
ATOM      4  O   UNL     1     -27.986   7.168 -30.086  0.00  0.00    +0.000 OA
ATOM      5  O   UNL     1     -23.415   4.507 -28.185  0.00  0.00    +0.000 OA
ATOM      6  C   UNL     1     -21.121   5.982 -24.270  0.00  0.00    +0.000 C 
ATOM      7  C   UNL     1     -19.163   7.266 -24.652  0.00  0.00    +0.000 C 
ATOM      8  C   UNL     1     -18.263   6.311 -23.801  0.00  0.00    +0.000 C 
ATOM      9  C   UNL     1     -20.357   4.989 -23.365  0.00  0.00    +0.000 C 
ATOM     10  C   UNL     1     -22.219   5.165 -24.995  0.00  0.00    +0.000 C 
ATOM     11  C   UNL     1     -19.137   5.645 -22.726  0.00  0.00    +0.000 C 
ATOM     12  C   UNL     1     -23.170   6.071 -25.776  0.00  0.00    +0.000 C 
ATOM     13  C   UNL     1     -22.494   7.919 -24.219  0.00  0.00    +0.000 C 
ATOM     14  C   UNL     1     -23.674   7.186 -24.864  0.00  0.00    +0.000 C 
ATOM     15  C   UNL     1     -26.172   6.160 -28.817  0.00  0.00    +0.000 C 
ATOM     16  C   UNL     1     -25.814   4.777 -28.136  0.00  0.00    +0.000 C 
ATOM     17  C   UNL     1     -27.113   6.046 -30.046  0.00  0.00    +0.000 C 
ATOM     18  C   UNL     1     -17.078   7.007 -23.112  0.00  0.00    +0.000 C 
ATOM     19  C   UNL     1     -22.941   9.068 -23.286  0.00  0.00    +0.000 C 
ATOM     20  C   UNL     1     -27.920   4.732 -30.059  0.00  0.00    +0.000 C 
ATOM     21  C   UNL     1     -26.987   7.078 -27.972  0.00  0.00    +0.000 C 
ATOM     22  C   UNL     1     -24.439   4.799 -27.504  0.00  0.00    +0.000 C 
ATOM     23  C   UNL     1     -25.941   3.612 -29.099  0.00  0.00    +0.000 C 
ATOM     24  C   UNL     1     -26.947   3.568 -29.987  0.00  0.00    +0.000 C 
ATOM     25  C   UNL     1     -27.960   7.796 -28.827  0.00  0.00    +0.000 C 
ATOM     26  C   UNL     1     -24.062   9.944 -23.835  0.00  0.00    +0.000 C 
ATOM     27  C   UNL     1     -26.819   7.308 -26.658  0.00  0.00    +0.000 C 
ATOM     28  C   UNL     1     -25.362   9.883 -23.438  0.00  0.00    +0.000 C 
ATOM     29  C   UNL     1     -26.415  10.875 -23.961  0.00  0.00    +0.000 C 
ATOM     30  C   UNL     1     -27.084   2.385 -30.914  0.00  0.00    +0.000 C 
ATOM     31  C   UNL     1     -26.607  10.953 -25.513  0.00  0.00    +0.000 C 
ATOM     32  C   UNL     1     -27.187   8.584 -26.037  0.00  0.00    +0.000 C 
ATOM     33  C   UNL     1     -26.386   9.639 -26.214  0.00  0.00    +0.000 C 
ATOM     34  C   UNL     1     -25.787   8.936 -22.336  0.00  0.00    +0.000 C 
ATOM     35  C   UNL     1     -25.793  12.064 -26.202  0.00  0.00    +0.000 C 
ENDROOT
BRANCH  15  36
ATOM     36  O   UNL     1     -25.011   6.835 -29.247  0.00  0.00    +0.000 OA
ATOM     37  H   UNL     1     -24.777   6.539 -30.141  0.00  0.00    +0.000 HD
ENDBRANCH  15  36
BRANCH  20  38
ATOM     38  O   UNL     1     -28.812   4.692 -28.965  0.00  0.00    +0.000 OA
ATOM     39  H   UNL     1     -28.823   3.798 -28.589  0.00  0.00    +0.000 HD
ENDBRANCH  20  38
BRANCH   7  40
ATOM     40  C   UNL     1     -18.451   8.043 -25.807  0.00  0.00    +0.000 C 
ATOM     41  C   UNL     1     -17.762   7.117 -26.828  0.00  0.00    +0.000 C 
BRANCH  40  42
ATOM     42  C   UNL     1     -19.325   9.099 -26.530  0.00  0.00    +0.000 C 
ATOM     43  C   UNL     1     -18.694  10.494 -26.533  0.00  0.00    +0.000 C 
ENDBRANCH  40  42
ENDBRANCH   7  40
BRANCH  29  44
ATOM     44  O   UNL     1     -26.133  12.164 -23.434  0.00  0.00    +0.000 OA
BRANCH  44  46
ATOM     45  O   UNL     1     -26.859  14.077 -22.406  0.00  0.00    +0.000 OA
ATOM     46  C   UNL     1     -27.253  12.779 -22.815  0.00  0.00    +0.000 C 
ATOM     47  C   UNL     1     -28.511  14.045 -20.546  0.00  0.00    +0.000 C 
ATOM     48  C   UNL     1     -28.840  12.574 -20.878  0.00  0.00    +0.000 C 
ATOM     49  C   UNL     1     -27.657  11.928 -21.602  0.00  0.00    +0.000 C 
ATOM     50  C   UNL     1     -27.904  14.796 -21.765  0.00  0.00    +0.000 C 
ATOM     51  C   UNL     1     -28.954  15.309 -22.766  0.00  0.00    +0.000 C 
BRANCH  48  52
ATOM     52  O   UNL     1     -29.986  12.493 -21.705  0.00  0.00    +0.000 OA
ATOM     53  C   UNL     1     -31.146  12.878 -20.999  0.00  0.00    +0.000 C 
ENDBRANCH  48  52
BRANCH  47  54
ATOM     54  O   UNL     1     -27.579  14.053 -19.475  0.00  0.00    +0.000 OA
BRANCH  54  56
ATOM     55  O   UNL     1     -27.466  15.397 -17.621  0.00  0.00    +0.000 OA
ATOM     56  C   UNL     1     -28.186  14.327 -18.222  0.00  0.00    +0.000 C 
ATOM     57  C   UNL     1     -28.230  13.029 -17.384  0.00  0.00    +0.000 C 
ATOM     58  C   UNL     1     -28.818  13.304 -15.989  0.00  0.00    +0.000 C 
ATOM     59  C   UNL     1     -28.368  14.683 -15.443  0.00  0.00    +0.000 C 
ATOM     60  C   UNL     1     -27.162  15.230 -16.243  0.00  0.00    +0.000 C 
ATOM     61  C   UNL     1     -26.714  16.587 -15.693  0.00  0.00    +0.000 C 
BRANCH  58  62
ATOM     62  O   UNL     1     -30.235  13.295 -16.061  0.00  0.00    +0.000 OA
ATOM     63  C   UNL     1     -30.769  14.568 -15.773  0.00  0.00    +0.000 C 
ENDBRANCH  58  62
BRANCH  59  64
ATOM     64  O   UNL     1     -28.025  14.563 -14.084  0.00  0.00    +0.000 OA
ATOM     65  H   UNL     1     -27.299  15.175 -13.880  0.00  0.00    +0.000 HD
ENDBRANCH  59  64
ENDBRANCH  54  56
ENDBRANCH  47  54
ENDBRANCH  44  46
ENDBRANCH  29  44
TORSDOF 11
ENDMDL
MODEL 4
REMARK VINA RESULT:    -7.570      4.270      9.828
REMARK INTER + INTRA:         -13.936
REMARK INTER:                 -12.272
REMARK INTRA:                  -1.664
REMARK UNBOUND:                -2.162
REMARK  Name = 6321424
REMARK  21 active torsions:
REMARK  status: ('A' for Active; 'I' for Inactive)
REMARK    1  A    between atoms: O_5  and  C_25
REMARK    2  A    between atoms: O_6  and  C_31
REMARK    3  A    between atoms: O_8  and  C_42
REMARK    4  A    between atoms: O_8  and  C_46
REMARK    5  A    between atoms: O_10  and  C_47
REMARK    6  A    between atoms: O_10  and  C_54
REMARK    7  A    between atoms: O_11  and  C_48
REMARK    8  A    between atoms: O_11  and  C_61
REMARK    9  A    between atoms: O_13  and  C_56
REMARK   10  A    between atoms: O_13  and  C_62
REMARK   11  A    between atoms: O_14  and  C_57
REMARK   12  A    between atoms: C_16  and  C_24
REMARK   13  A    between atoms: C_17  and  C_28
REMARK   14  A    between atoms: C_24  and  C_30
REMARK   15  A    between atoms: C_24  and  C_33
REMARK   16  A    between atoms: C_30  and  C_39
REMARK   17  A    between atoms: C_36  and  C_43
REMARK   18  A    between atoms: C_41  and  C_52
REMARK   19  A    between atoms: C_44  and  C_53
REMARK   20  A    between atoms: C_51  and  C_58
REMARK   21  A    between atoms: C_59  and  C_60
REMARK                            x       y       z     vdW  Elec       q    Type
REMARK                         _______ _______ _______ _____ _____    ______ ____
ROOT
ATOM      1  O   UNL     1     -22.273   4.512 -23.782  0.00  0.00    +0.000 OA
ATOM      2  O   UNL     1     -23.586   4.906 -21.863  0.00  0.00    +0.000 OA
ATOM      3  O   UNL     1     -26.506   4.721 -24.788  0.00  0.00    +0.000 OA
ATOM      4  O   UNL     1     -29.504   8.370 -27.887  0.00  0.00    +0.000 OA
ATOM      5  O   UNL     1     -25.851   4.204 -26.942  0.00  0.00    +0.000 OA
ATOM      6  C   UNL     1     -23.290   3.999 -22.923  0.00  0.00    +0.000 C 
ATOM      7  C   UNL     1     -21.052   4.769 -23.093  0.00  0.00    +0.000 C 
ATOM      8  C   UNL     1     -20.455   3.428 -22.549  0.00  0.00    +0.000 C 
ATOM      9  C   UNL     1     -22.835   2.646 -22.328  0.00  0.00    +0.000 C 
ATOM     10  C   UNL     1     -24.560   3.710 -23.760  0.00  0.00    +0.000 C 
ATOM     11  C   UNL     1     -21.491   2.775 -21.619  0.00  0.00    +0.000 C 
ATOM     12  C   UNL     1     -25.219   5.000 -24.245  0.00  0.00    +0.000 C 
ATOM     13  C   UNL     1     -24.084   6.157 -22.329  0.00  0.00    +0.000 C 
ATOM     14  C   UNL     1     -25.412   5.948 -23.064  0.00  0.00    +0.000 C 
ATOM     15  C   UNL     1     -28.047   6.635 -27.002  0.00  0.00    +0.000 C 
ATOM     16  C   UNL     1     -28.087   5.082 -26.696  0.00  0.00    +0.000 C 
ATOM     17  C   UNL     1     -28.969   7.083 -28.168  0.00  0.00    +0.000 C 
ATOM     18  C   UNL     1     -19.135   3.590 -21.780  0.00  0.00    +0.000 C 
ATOM     19  C   UNL     1     -24.213   7.115 -21.123  0.00  0.00    +0.000 C 
ATOM     20  C   UNL     1     -30.103   6.077 -28.451  0.00  0.00    +0.000 C 
ATOM     21  C   UNL     1     -28.592   7.498 -25.916  0.00  0.00    +0.000 C 
ATOM     22  C   UNL     1     -26.765   4.580 -26.155  0.00  0.00    +0.000 C 
ATOM     23  C   UNL     1     -28.515   4.269 -27.902  0.00  0.00    +0.000 C 
ATOM     24  C   UNL     1     -29.484   4.715 -28.717  0.00  0.00    +0.000 C 
ATOM     25  C   UNL     1     -29.322   8.637 -26.517  0.00  0.00    +0.000 C 
ATOM     26  C   UNL     1     -25.047   8.366 -21.381  0.00  0.00    +0.000 C 
ATOM     27  C   UNL     1     -28.384   7.342 -24.597  0.00  0.00    +0.000 C 
ATOM     28  C   UNL     1     -26.319   8.557 -20.939  0.00  0.00    +0.000 C 
ATOM     29  C   UNL     1     -27.058   9.891 -21.146  0.00  0.00    +0.000 C 
ATOM     30  C   UNL     1     -29.926   3.879 -29.893  0.00  0.00    +0.000 C 
ATOM     31  C   UNL     1     -27.201  10.399 -22.621  0.00  0.00    +0.000 C 
ATOM     32  C   UNL     1     -28.398   8.476 -23.667  0.00  0.00    +0.000 C 
ATOM     33  C   UNL     1     -27.339   9.289 -23.629  0.00  0.00    +0.000 C 
ATOM     34  C   UNL     1     -27.000   7.515 -20.075  0.00  0.00    +0.000 C 
ATOM     35  C   UNL     1     -26.109  11.387 -23.066  0.00  0.00    +0.000 C 
ENDROOT
BRANCH  15  36
ATOM     36  O   UNL     1     -26.741   7.060 -27.321  0.00  0.00    +0.000 OA
ATOM     37  H   UNL     1     -26.786   7.806 -27.941  0.00  0.00    +0.000 HD
ENDBRANCH  15  36
BRANCH  20  38
ATOM     38  O   UNL     1     -30.985   6.007 -27.352  0.00  0.00    +0.000 OA
ATOM     39  H   UNL     1     -31.641   6.718 -27.418  0.00  0.00    +0.000 HD
ENDBRANCH  20  38
BRANCH   7  40
ATOM     40  C   UNL     1     -20.141   5.588 -24.064  0.00  0.00    +0.000 C 
ATOM     41  C   UNL     1     -20.811   5.884 -25.420  0.00  0.00    +0.000 C 
BRANCH  40  42
ATOM     42  C   UNL     1     -19.531   6.880 -23.463  0.00  0.00    +0.000 C 
ATOM     43  C   UNL     1     -20.110   7.228 -22.089  0.00  0.00    +0.000 C 
ENDBRANCH  40  42
ENDBRANCH   7  40
BRANCH  29  44
ATOM     44  O   UNL     1     -26.442  10.887 -20.340  0.00  0.00    +0.000 OA
BRANCH  44  46
ATOM     45  O   UNL     1     -27.447  12.940 -20.455  0.00  0.00    +0.000 OA
ATOM     46  C   UNL     1     -27.370  11.745 -19.696  0.00  0.00    +0.000 C 
ATOM     47  C   UNL     1     -28.039  14.248 -18.422  0.00  0.00    +0.000 C 
ATOM     48  C   UNL     1     -27.804  12.991 -17.558  0.00  0.00    +0.000 C 
ATOM     49  C   UNL     1     -26.853  12.034 -18.280  0.00  0.00    +0.000 C 
ATOM     50  C   UNL     1     -28.351  13.888 -19.903  0.00  0.00    +0.000 C 
ATOM     51  C   UNL     1     -29.820  13.504 -20.154  0.00  0.00    +0.000 C 
BRANCH  48  52
ATOM     52  O   UNL     1     -29.027  12.322 -17.308  0.00  0.00    +0.000 OA
ATOM     53  C   UNL     1     -29.839  13.067 -16.427  0.00  0.00    +0.000 C 
ENDBRANCH  48  52
BRANCH  47  54
ATOM     54  O   UNL     1     -26.862  15.040 -18.367  0.00  0.00    +0.000 OA
BRANCH  54  56
ATOM     55  O   UNL     1     -26.874  16.913 -19.689  0.00  0.00    +0.000 OA
ATOM     56  C   UNL     1     -27.137  16.433 -18.376  0.00  0.00    +0.000 C 
ATOM     57  C   UNL     1     -26.317  17.119 -17.261  0.00  0.00    +0.000 C 
ATOM     58  C   UNL     1     -26.536  18.642 -17.287  0.00  0.00    +0.000 C 
ATOM     59  C   UNL     1     -26.660  19.176 -18.737  0.00  0.00    +0.000 C 
ATOM     60  C   UNL     1     -26.146  18.132 -19.757  0.00  0.00    +0.000 C 
ATOM     61  C   UNL     1     -26.259  18.668 -21.188  0.00  0.00    +0.000 C 
BRANCH  58  62
ATOM     62  O   UNL     1     -27.732  18.962 -16.592  0.00  0.00    +0.000 OA
ATOM     63  C   UNL     1     -27.502  19.939 -15.602  0.00  0.00    +0.000 C 
ENDBRANCH  58  62
BRANCH  59  64
ATOM     64  O   UNL     1     -25.927  20.369 -18.865  0.00  0.00    +0.000 OA
ATOM     65  H   UNL     1     -25.150  20.212 -19.425  0.00  0.00    +0.000 HD
ENDBRANCH  59  64
ENDBRANCH  54  56
ENDBRANCH  47  54
ENDBRANCH  44  46
ENDBRANCH  29  44
TORSDOF 11
ENDMDL
MODEL 5
REMARK VINA RESULT:    -7.541      4.692     10.049
REMARK INTER + INTRA:         -13.892
REMARK INTER:                 -12.288
REMARK INTRA:                  -1.603
REMARK UNBOUND:                -2.162
REMARK  Name = 6321424
REMARK  21 active torsions:
REMARK  status: ('A' for Active; 'I' for Inactive)
REMARK    1  A    between atoms: O_5  and  C_25
REMARK    2  A    between atoms: O_6  and  C_31
REMARK    3  A    between atoms: O_8  and  C_42
REMARK    4  A    between atoms: O_8  and  C_46
REMARK    5  A    between atoms: O_10  and  C_47
REMARK    6  A    between atoms: O_10  and  C_54
REMARK    7  A    between atoms: O_11  and  C_48
REMARK    8  A    between atoms: O_11  and  C_61
REMARK    9  A    between atoms: O_13  and  C_56
REMARK   10  A    between atoms: O_13  and  C_62
REMARK   11  A    between atoms: O_14  and  C_57
REMARK   12  A    between atoms: C_16  and  C_24
REMARK   13  A    between atoms: C_17  and  C_28
REMARK   14  A    between atoms: C_24  and  C_30
REMARK   15  A    between atoms: C_24  and  C_33
REMARK   16  A    between atoms: C_30  and  C_39
REMARK   17  A    between atoms: C_36  and  C_43
REMARK   18  A    between atoms: C_41  and  C_52
REMARK   19  A    between atoms: C_44  and  C_53
REMARK   20  A    between atoms: C_51  and  C_58
REMARK   21  A    between atoms: C_59  and  C_60
REMARK                            x       y       z     vdW  Elec       q    Type
REMARK                         _______ _______ _______ _____ _____    ______ ____
ROOT
ATOM      1  O   UNL     1     -21.861   4.793 -23.615  0.00  0.00    +0.000 OA
ATOM      2  O   UNL     1     -23.105   5.230 -21.659  0.00  0.00    +0.000 OA
ATOM      3  O   UNL     1     -26.143   4.626 -24.402  0.00  0.00    +0.000 OA
ATOM      4  O   UNL     1     -29.554   7.818 -27.577  0.00  0.00    +0.000 OA
ATOM      5  O   UNL     1     -25.557   4.003 -26.549  0.00  0.00    +0.000 OA
ATOM      6  C   UNL     1     -22.794   4.272 -22.669  0.00  0.00    +0.000 C 
ATOM      7  C   UNL     1     -20.631   5.185 -23.013  0.00  0.00    +0.000 C 
ATOM      8  C   UNL     1     -19.910   3.934 -22.411  0.00  0.00    +0.000 C 
ATOM      9  C   UNL     1     -22.210   3.002 -22.008  0.00  0.00    +0.000 C 
ATOM     10  C   UNL     1     -24.078   3.833 -23.415  0.00  0.00    +0.000 C 
ATOM     11  C   UNL     1     -20.846   3.277 -21.384  0.00  0.00    +0.000 C 
ATOM     12  C   UNL     1     -24.855   5.034 -23.951  0.00  0.00    +0.000 C 
ATOM     13  C   UNL     1     -23.718   6.405 -22.183  0.00  0.00    +0.000 C 
ATOM     14  C   UNL     1     -25.060   6.049 -22.829  0.00  0.00    +0.000 C 
ATOM     15  C   UNL     1     -27.930   6.259 -26.655  0.00  0.00    +0.000 C 
ATOM     16  C   UNL     1     -27.837   4.734 -26.242  0.00  0.00    +0.000 C 
ATOM     17  C   UNL     1     -28.938   6.555 -27.798  0.00  0.00    +0.000 C 
ATOM     18  C   UNL     1     -18.569   4.245 -21.727  0.00  0.00    +0.000 C 
ATOM     19  C   UNL     1     -23.859   7.437 -21.039  0.00  0.00    +0.000 C 
ATOM     20  C   UNL     1     -30.006   5.453 -27.950  0.00  0.00    +0.000 C 
ATOM     21  C   UNL     1     -28.484   7.158 -25.603  0.00  0.00    +0.000 C 
ATOM     22  C   UNL     1     -26.457   4.368 -25.741  0.00  0.00    +0.000 C 
ATOM     23  C   UNL     1     -28.262   3.807 -27.365  0.00  0.00    +0.000 C 
ATOM     24  C   UNL     1     -29.300   4.123 -28.155  0.00  0.00    +0.000 C 
ATOM     25  C   UNL     1     -29.326   8.195 -26.241  0.00  0.00    +0.000 C 
ATOM     26  C   UNL     1     -24.796   8.602 -21.337  0.00  0.00    +0.000 C 
ATOM     27  C   UNL     1     -28.200   7.113 -24.290  0.00  0.00    +0.000 C 
ATOM     28  C   UNL     1     -26.056   8.734 -20.841  0.00  0.00    +0.000 C 
ATOM     29  C   UNL     1     -26.901   9.993 -21.099  0.00  0.00    +0.000 C 
ATOM     30  C   UNL     1     -29.736   3.175 -29.245  0.00  0.00    +0.000 C 
ATOM     31  C   UNL     1     -27.155  10.381 -22.595  0.00  0.00    +0.000 C 
ATOM     32  C   UNL     1     -28.254   8.307 -23.441  0.00  0.00    +0.000 C 
ATOM     33  C   UNL     1     -27.258   9.195 -23.516  0.00  0.00    +0.000 C 
ATOM     34  C   UNL     1     -26.613   7.711 -19.872  0.00  0.00    +0.000 C 
ATOM     35  C   UNL     1     -26.162  11.410 -23.165  0.00  0.00    +0.000 C 
ENDROOT
BRANCH  15  36
ATOM     36  O   UNL     1     -26.676   6.753 -27.074  0.00  0.00    +0.000 OA
ATOM     37  H   UNL     1     -26.552   6.563 -28.017  0.00  0.00    +0.000 HD
ENDBRANCH  15  36
BRANCH  20  38
ATOM     38  O   UNL     1     -30.825   5.399 -26.802  0.00  0.00    +0.000 OA
ATOM     39  H   UNL     1     -31.727   5.152 -27.059  0.00  0.00    +0.000 HD
ENDBRANCH  20  38
BRANCH   7  40
ATOM     40  C   UNL     1     -19.833   5.995 -24.085  0.00  0.00    +0.000 C 
ATOM     41  C   UNL     1     -19.178   5.102 -25.157  0.00  0.00    +0.000 C 
BRANCH  40  42
ATOM     42  C   UNL     1     -20.612   7.160 -24.747  0.00  0.00    +0.000 C 
ATOM     43  C   UNL     1     -19.795   7.891 -25.817  0.00  0.00    +0.000 C 
ENDBRANCH  40  42
ENDBRANCH   7  40
BRANCH  29  44
ATOM     44  O   UNL     1     -26.323  11.086 -20.398  0.00  0.00    +0.000 OA
BRANCH  44  46
ATOM     45  O   UNL     1     -27.216  13.194 -20.362  0.00  0.00    +0.000 OA
ATOM     46  C   UNL     1     -27.280  11.914 -19.756  0.00  0.00    +0.000 C 
ATOM     47  C   UNL     1     -27.978  14.281 -18.257  0.00  0.00    +0.000 C 
ATOM     48  C   UNL     1     -27.901  12.918 -17.538  0.00  0.00    +0.000 C 
ATOM     49  C   UNL     1     -26.917  12.000 -18.266  0.00  0.00    +0.000 C 
ATOM     50  C   UNL     1     -28.134  14.120 -19.796  0.00  0.00    +0.000 C 
ATOM     51  C   UNL     1     -29.580  13.855 -20.251  0.00  0.00    +0.000 C 
BRANCH  48  52
ATOM     52  O   UNL     1     -29.173  12.296 -17.508  0.00  0.00    +0.000 OA
ATOM     53  C   UNL     1     -30.089  13.059 -16.752  0.00  0.00    +0.000 C 
ENDBRANCH  48  52
BRANCH  47  54
ATOM     54  O   UNL     1     -26.782  14.991 -17.976  0.00  0.00    +0.000 OA
BRANCH  54  56
ATOM     55  O   UNL     1     -26.737  15.575 -15.759  0.00  0.00    +0.000 OA
ATOM     56  C   UNL     1     -26.981  16.066 -17.071  0.00  0.00    +0.000 C 
ATOM     57  C   UNL     1     -28.394  16.655 -17.288  0.00  0.00    +0.000 C 
ATOM     58  C   UNL     1     -28.673  17.780 -16.275  0.00  0.00    +0.000 C 
ATOM     59  C   UNL     1     -28.061  17.461 -14.887  0.00  0.00    +0.000 C 
ATOM     60  C   UNL     1     -27.687  15.964 -14.775  0.00  0.00    +0.000 C 
ATOM     61  C   UNL     1     -27.093  15.651 -13.399  0.00  0.00    +0.000 C 
BRANCH  58  62
ATOM     62  O   UNL     1     -28.105  18.992 -16.744  0.00  0.00    +0.000 OA
ATOM     63  C   UNL     1     -27.105  19.461 -15.866  0.00  0.00    +0.000 C 
ENDBRANCH  58  62
BRANCH  59  64
ATOM     64  O   UNL     1     -28.979  17.801 -13.877  0.00  0.00    +0.000 OA
ATOM     65  H   UNL     1     -28.977  17.110 -13.195  0.00  0.00    +0.000 HD
ENDBRANCH  59  64
ENDBRANCH  54  56
ENDBRANCH  47  54
ENDBRANCH  44  46
ENDBRANCH  29  44
TORSDOF 11
ENDMDL
MODEL 6
REMARK VINA RESULT:    -7.429      1.659      3.916
REMARK INTER + INTRA:         -13.717
REMARK INTER:                 -12.184
REMARK INTRA:                  -1.533
REMARK UNBOUND:                -2.162
REMARK  Name = 6321424
REMARK  21 active torsions:
REMARK  status: ('A' for Active; 'I' for Inactive)
REMARK    1  A    between atoms: O_5  and  C_25
REMARK    2  A    between atoms: O_6  and  C_31
REMARK    3  A    between atoms: O_8  and  C_42
REMARK    4  A    between atoms: O_8  and  C_46
REMARK    5  A    between atoms: O_10  and  C_47
REMARK    6  A    between atoms: O_10  and  C_54
REMARK    7  A    between atoms: O_11  and  C_48
REMARK    8  A    between atoms: O_11  and  C_61
REMARK    9  A    between atoms: O_13  and  C_56
REMARK   10  A    between atoms: O_13  and  C_62
REMARK   11  A    between atoms: O_14  and  C_57
REMARK   12  A    between atoms: C_16  and  C_24
REMARK   13  A    between atoms: C_17  and  C_28
REMARK   14  A    between atoms: C_24  and  C_30
REMARK   15  A    between atoms: C_24  and  C_33
REMARK   16  A    between atoms: C_30  and  C_39
REMARK   17  A    between atoms: C_36  and  C_43
REMARK   18  A    between atoms: C_41  and  C_52
REMARK   19  A    between atoms: C_44  and  C_53
REMARK   20  A    between atoms: C_51  and  C_58
REMARK   21  A    between atoms: C_59  and  C_60
REMARK                            x       y       z     vdW  Elec       q    Type
REMARK                         _______ _______ _______ _____ _____    ______ ____
ROOT
ATOM      1  O   UNL     1     -29.979   6.519 -29.972  0.00  0.00    +0.000 OA
ATOM      2  O   UNL     1     -29.357   5.222 -28.104  0.00  0.00    +0.000 OA
ATOM      3  O   UNL     1     -29.896   8.926 -26.342  0.00  0.00    +0.000 OA
ATOM      4  O   UNL     1     -26.650  13.254 -24.720  0.00  0.00    +0.000 OA
ATOM      5  O   UNL     1     -30.668  10.654 -27.667  0.00  0.00    +0.000 OA
ATOM      6  C   UNL     1     -30.385   6.007 -28.705  0.00  0.00    +0.000 C 
ATOM      7  C   UNL     1     -29.640   5.490 -30.897  0.00  0.00    +0.000 C 
ATOM      8  C   UNL     1     -30.904   4.626 -31.220  0.00  0.00    +0.000 C 
ATOM      9  C   UNL     1     -31.656   5.143 -28.876  0.00  0.00    +0.000 C 
ATOM     10  C   UNL     1     -30.775   7.189 -27.783  0.00  0.00    +0.000 C 
ATOM     11  C   UNL     1     -31.442   4.038 -29.906  0.00  0.00    +0.000 C 
ATOM     12  C   UNL     1     -29.553   8.012 -27.380  0.00  0.00    +0.000 C 
ATOM     13  C   UNL     1     -28.173   5.969 -27.844  0.00  0.00    +0.000 C 
ATOM     14  C   UNL     1     -28.470   7.084 -26.836  0.00  0.00    +0.000 C 
ATOM     15  C   UNL     1     -28.265  11.735 -25.720  0.00  0.00    +0.000 C 
ATOM     16  C   UNL     1     -29.769  11.287 -25.517  0.00  0.00    +0.000 C 
ATOM     17  C   UNL     1     -27.961  13.188 -25.266  0.00  0.00    +0.000 C 
ATOM     18  C   UNL     1     -30.650   3.477 -32.207  0.00  0.00    +0.000 C 
ATOM     19  C   UNL     1     -27.076   4.995 -27.353  0.00  0.00    +0.000 C 
ATOM     20  C   UNL     1     -28.995  13.725 -24.256  0.00  0.00    +0.000 C 
ATOM     21  C   UNL     1     -27.277  11.005 -24.875  0.00  0.00    +0.000 C 
ATOM     22  C   UNL     1     -30.201  10.274 -26.556  0.00  0.00    +0.000 C 
ATOM     23  C   UNL     1     -30.722  12.466 -25.491  0.00  0.00    +0.000 C 
ATOM     24  C   UNL     1     -30.378  13.607 -24.874  0.00  0.00    +0.000 C 
ATOM     25  C   UNL     1     -26.220  11.944 -24.438  0.00  0.00    +0.000 C 
ATOM     26  C   UNL     1     -25.867   5.662 -26.706  0.00  0.00    +0.000 C 
ATOM     27  C   UNL     1     -27.273   9.685 -24.618  0.00  0.00    +0.000 C 
ATOM     28  C   UNL     1     -25.624   5.705 -25.368  0.00  0.00    +0.000 C 
ATOM     29  C   UNL     1     -24.326   6.302 -24.798  0.00  0.00    +0.000 C 
ATOM     30  C   UNL     1     -31.350  14.761 -24.822  0.00  0.00    +0.000 C 
ATOM     31  C   UNL     1     -24.000   7.785 -25.183  0.00  0.00    +0.000 C 
ATOM     32  C   UNL     1     -26.036   8.952 -24.335  0.00  0.00    +0.000 C 
ATOM     33  C   UNL     1     -25.223   8.647 -25.351  0.00  0.00    +0.000 C 
ATOM     34  C   UNL     1     -26.556   5.013 -24.394  0.00  0.00    +0.000 C 
ATOM     35  C   UNL     1     -23.072   7.940 -26.401  0.00  0.00    +0.000 C 
ENDROOT
BRANCH  15  36
ATOM     36  O   UNL     1     -27.879  11.635 -27.073  0.00  0.00    +0.000 OA
ATOM     37  H   UNL     1     -28.108  12.457 -27.536  0.00  0.00    +0.000 HD
ENDBRANCH  15  36
BRANCH  20  38
ATOM     38  O   UNL     1     -28.933  12.992 -23.052  0.00  0.00    +0.000 OA
ATOM     39  H   UNL     1     -29.508  12.213 -23.117  0.00  0.00    +0.000 HD
ENDBRANCH  20  38
BRANCH   7  40
ATOM     40  C   UNL     1     -28.942   6.178 -32.115  0.00  0.00    +0.000 C 
ATOM     41  C   UNL     1     -29.414   7.627 -32.346  0.00  0.00    +0.000 C 
BRANCH  40  42
ATOM     42  C   UNL     1     -27.395   6.101 -32.119  0.00  0.00    +0.000 C 
ATOM     43  C   UNL     1     -26.853   4.965 -31.247  0.00  0.00    +0.000 C 
ENDBRANCH  40  42
ENDBRANCH   7  40
BRANCH  29  44
ATOM     44  O   UNL     1     -23.240   5.453 -25.144  0.00  0.00    +0.000 OA
BRANCH  44  46
ATOM     45  O   UNL     1     -21.276   5.482 -23.968  0.00  0.00    +0.000 OA
ATOM     46  C   UNL     1     -22.570   4.906 -24.019  0.00  0.00    +0.000 C 
ATOM     47  C   UNL     1     -20.368   3.457 -22.844  0.00  0.00    +0.000 C 
ATOM     48  C   UNL     1     -21.728   2.754 -23.034  0.00  0.00    +0.000 C 
ATOM     49  C   UNL     1     -22.480   3.385 -24.208  0.00  0.00    +0.000 C 
ATOM     50  C   UNL     1     -20.502   5.006 -22.875  0.00  0.00    +0.000 C 
ATOM     51  C   UNL     1     -20.949   5.619 -21.536  0.00  0.00    +0.000 C 
BRANCH  48  52
ATOM     52  O   UNL     1     -22.519   2.871 -21.865  0.00  0.00    +0.000 OA
ATOM     53  C   UNL     1     -23.721   2.143 -21.994  0.00  0.00    +0.000 C 
ENDBRANCH  48  52
BRANCH  47  54
ATOM     54  O   UNL     1     -19.509   3.037 -23.893  0.00  0.00    +0.000 OA
BRANCH  54  56
ATOM     55  O   UNL     1     -17.391   2.993 -24.771  0.00  0.00    +0.000 OA
ATOM     56  C   UNL     1     -18.239   3.669 -23.850  0.00  0.00    +0.000 C 
ATOM     57  C   UNL     1     -17.728   3.682 -22.391  0.00  0.00    +0.000 C 
ATOM     58  C   UNL     1     -16.320   4.299 -22.317  0.00  0.00    +0.000 C 
ATOM     59  C   UNL     1     -15.458   3.901 -23.543  0.00  0.00    +0.000 C 
ATOM     60  C   UNL     1     -16.084   2.703 -24.295  0.00  0.00    +0.000 C 
ATOM     61  C   UNL     1     -15.223   2.306 -25.499  0.00  0.00    +0.000 C 
BRANCH  58  62
ATOM     62  O   UNL     1     -16.422   5.713 -22.285  0.00  0.00    +0.000 OA
ATOM     63  C   UNL     1     -15.975   6.285 -23.494  0.00  0.00    +0.000 C 
ENDBRANCH  58  62
BRANCH  59  64
ATOM     64  O   UNL     1     -14.158   3.573 -23.119  0.00  0.00    +0.000 OA
ATOM     65  H   UNL     1     -14.002   2.625 -23.261  0.00  0.00    +0.000 HD
ENDBRANCH  59  64
ENDBRANCH  54  56
ENDBRANCH  47  54
ENDBRANCH  44  46
ENDBRANCH  29  44
TORSDOF 11
ENDMDL
MODEL 7
REMARK VINA RESULT:    -7.317      3.862      9.590
REMARK INTER + INTRA:         -13.543
REMARK INTER:                 -11.950
REMARK INTRA:                  -1.594
REMARK UNBOUND:                -2.162
REMARK  Name = 6321424
REMARK  21 active torsions:
REMARK  status: ('A' for Active; 'I' for Inactive)
REMARK    1  A    between atoms: O_5  and  C_25
REMARK    2  A    between atoms: O_6  and  C_31
REMARK    3  A    between atoms: O_8  and  C_42
REMARK    4  A    between atoms: O_8  and  C_46
REMARK    5  A    between atoms: O_10  and  C_47
REMARK    6  A    between atoms: O_10  and  C_54
REMARK    7  A    between atoms: O_11  and  C_48
REMARK    8  A    between atoms: O_11  and  C_61
REMARK    9  A    between atoms: O_13  and  C_56
REMARK   10  A    between atoms: O_13  and  C_62
REMARK   11  A    between atoms: O_14  and  C_57
REMARK   12  A    between atoms: C_16  and  C_24
REMARK   13  A    between atoms: C_17  and  C_28
REMARK   14  A    between atoms: C_24  and  C_30
REMARK   15  A    between atoms: C_24  and  C_33
REMARK   16  A    between atoms: C_30  and  C_39
REMARK   17  A    between atoms: C_36  and  C_43
REMARK   18  A    between atoms: C_41  and  C_52
REMARK   19  A    between atoms: C_44  and  C_53
REMARK   20  A    between atoms: C_51  and  C_58
REMARK   21  A    between atoms: C_59  and  C_60
REMARK                            x       y       z     vdW  Elec       q    Type
REMARK                         _______ _______ _______ _____ _____    ______ ____
ROOT
ATOM      1  O   UNL     1     -22.961   6.446 -24.306  0.00  0.00    +0.000 OA
ATOM      2  O   UNL     1     -23.804   7.836 -22.598  0.00  0.00    +0.000 OA
ATOM      3  O   UNL     1     -27.312   6.296 -24.160  0.00  0.00    +0.000 OA
ATOM      4  O   UNL     1     -31.300   7.947 -27.804  0.00  0.00    +0.000 OA
ATOM      5  O   UNL     1     -27.150   4.710 -25.832  0.00  0.00    +0.000 OA
ATOM      6  C   UNL     1     -23.687   6.498 -23.080  0.00  0.00    +0.000 C 
ATOM      7  C   UNL     1     -21.640   6.966 -24.183  0.00  0.00    +0.000 C 
ATOM      8  C   UNL     1     -20.805   6.076 -23.204  0.00  0.00    +0.000 C 
ATOM      9  C   UNL     1     -22.977   5.630 -22.016  0.00  0.00    +0.000 C 
ATOM     10  C   UNL     1     -25.089   5.875 -23.296  0.00  0.00    +0.000 C 
ATOM     11  C   UNL     1     -21.519   6.045 -21.844  0.00  0.00    +0.000 C 
ATOM     12  C   UNL     1     -25.964   6.757 -24.185  0.00  0.00    +0.000 C 
ATOM     13  C   UNL     1     -24.516   8.685 -23.492  0.00  0.00    +0.000 C 
ATOM     14  C   UNL     1     -25.956   8.187 -23.650  0.00  0.00    +0.000 C 
ATOM     15  C   UNL     1     -29.515   6.856 -26.562  0.00  0.00    +0.000 C 
ATOM     16  C   UNL     1     -29.333   5.689 -25.508  0.00  0.00    +0.000 C 
ATOM     17  C   UNL     1     -30.729   6.677 -27.513  0.00  0.00    +0.000 C 
ATOM     18  C   UNL     1     -19.360   6.552 -22.992  0.00  0.00    +0.000 C 
ATOM     19  C   UNL     1     -24.440  10.135 -22.958  0.00  0.00    +0.000 C 
ATOM     20  C   UNL     1     -31.797   5.722 -26.943  0.00  0.00    +0.000 C 
ATOM     21  C   UNL     1     -29.862   8.180 -25.972  0.00  0.00    +0.000 C 
ATOM     22  C   UNL     1     -27.878   5.480 -25.144  0.00  0.00    +0.000 C 
ATOM     23  C   UNL     1     -29.960   4.389 -25.974  0.00  0.00    +0.000 C 
ATOM     24  C   UNL     1     -31.134   4.393 -26.624  0.00  0.00    +0.000 C 
ATOM     25  C   UNL     1     -30.819   8.875 -26.861  0.00  0.00    +0.000 C 
ATOM     26  C   UNL     1     -25.427  11.107 -23.596  0.00  0.00    +0.000 C 
ATOM     27  C   UNL     1     -29.328   8.720 -24.863  0.00  0.00    +0.000 C 
ATOM     28  C   UNL     1     -26.567  11.557 -23.006  0.00  0.00    +0.000 C 
ATOM     29  C   UNL     1     -27.456  12.623 -23.669  0.00  0.00    +0.000 C 
ATOM     30  C   UNL     1     -31.766   3.090 -27.050  0.00  0.00    +0.000 C 
ATOM     31  C   UNL     1     -27.999  12.301 -25.103  0.00  0.00    +0.000 C 
ATOM     32  C   UNL     1     -29.225  10.170 -24.675  0.00  0.00    +0.000 C 
ATOM     33  C   UNL     1     -28.269  10.837 -25.329  0.00  0.00    +0.000 C 
ATOM     34  C   UNL     1     -26.917  11.145 -21.591  0.00  0.00    +0.000 C 
ATOM     35  C   UNL     1     -27.144  12.865 -26.251  0.00  0.00    +0.000 C 
ENDROOT
BRANCH  15  36
ATOM     36  O   UNL     1     -28.371   6.995 -27.375  0.00  0.00    +0.000 OA
ATOM     37  H   UNL     1     -28.311   7.909 -27.694  0.00  0.00    +0.000 HD
ENDBRANCH  15  36
BRANCH  20  38
ATOM     38  O   UNL     1     -32.378   6.271 -25.779  0.00  0.00    +0.000 OA
ATOM     39  H   UNL     1     -32.765   7.136 -25.988  0.00  0.00    +0.000 HD
ENDBRANCH  20  38
BRANCH   7  40
ATOM     40  C   UNL     1     -21.072   7.123 -25.632  0.00  0.00    +0.000 C 
ATOM     41  C   UNL     1     -22.076   6.713 -26.726  0.00  0.00    +0.000 C 
BRANCH  40  42
ATOM     42  C   UNL     1     -20.452   8.507 -25.951  0.00  0.00    +0.000 C 
ATOM     43  C   UNL     1     -18.933   8.450 -26.137  0.00  0.00    +0.000 C 
ENDBRANCH  40  42
ENDBRANCH   7  40
BRANCH  29  44
ATOM     44  O   UNL     1     -26.761  13.863 -23.673  0.00  0.00    +0.000 OA
BRANCH  44  46
ATOM     45  O   UNL     1     -26.425  15.764 -22.443  0.00  0.00    +0.000 OA
ATOM     46  C   UNL     1     -27.419  14.881 -22.934  0.00  0.00    +0.000 C 
ATOM     47  C   UNL     1     -27.850  16.355 -20.490  0.00  0.00    +0.000 C 
ATOM     48  C   UNL     1     -28.872  15.283 -20.924  0.00  0.00    +0.000 C 
ATOM     49  C   UNL     1     -28.177  14.218 -21.775  0.00  0.00    +0.000 C 
ATOM     50  C   UNL     1     -26.966  16.833 -21.677  0.00  0.00    +0.000 C 
ATOM     51  C   UNL     1     -27.635  17.900 -22.562  0.00  0.00    +0.000 C 
BRANCH  48  52
ATOM     52  O   UNL     1     -29.917  15.866 -21.681  0.00  0.00    +0.000 OA
ATOM     53  C   UNL     1     -30.694  16.733 -20.883  0.00  0.00    +0.000 C 
ENDBRANCH  48  52
BRANCH  47  54
ATOM     54  O   UNL     1     -27.025  15.789 -19.484  0.00  0.00    +0.000 OA
BRANCH  54  56
ATOM     55  O   UNL     1     -27.424  16.092 -17.247  0.00  0.00    +0.000 OA
ATOM     56  C   UNL     1     -27.766  15.299 -18.377  0.00  0.00    +0.000 C 
ATOM     57  C   UNL     1     -27.491  13.787 -18.212  0.00  0.00    +0.000 C 
ATOM     58  C   UNL     1     -28.224  13.235 -16.976  0.00  0.00    +0.000 C 
ATOM     59  C   UNL     1     -28.225  14.257 -15.811  0.00  0.00    +0.000 C 
ATOM     60  C   UNL     1     -27.176  15.369 -16.048  0.00  0.00    +0.000 C 
ATOM     61  C   UNL     1     -27.172  16.371 -14.888  0.00  0.00    +0.000 C 
BRANCH  58  62
ATOM     62  O   UNL     1     -29.571  12.945 -17.314  0.00  0.00    +0.000 OA
ATOM     63  C   UNL     1     -29.647  12.162 -18.485  0.00  0.00    +0.000 C 
ENDBRANCH  58  62
BRANCH  59  64
ATOM     64  O   UNL     1     -27.951  13.593 -14.601  0.00  0.00    +0.000 OA
ATOM     65  H   UNL     1     -27.390  12.821 -14.776  0.00  0.00    +0.000 HD
ENDBRANCH  59  64
ENDBRANCH  54  56
ENDBRANCH  47  54
ENDBRANCH  44  46
ENDBRANCH  29  44
TORSDOF 11
ENDMDL
MODEL 8
REMARK VINA RESULT:    -7.281      2.838     10.780
REMARK INTER + INTRA:         -13.487
REMARK INTER:                 -12.522
REMARK INTRA:                  -0.964
REMARK UNBOUND:                -2.162
REMARK  Name = 6321424
REMARK  21 active torsions:
REMARK  status: ('A' for Active; 'I' for Inactive)
REMARK    1  A    between atoms: O_5  and  C_25
REMARK    2  A    between atoms: O_6  and  C_31
REMARK    3  A    between atoms: O_8  and  C_42
REMARK    4  A    between atoms: O_8  and  C_46
REMARK    5  A    between atoms: O_10  and  C_47
REMARK    6  A    between atoms: O_10  and  C_54
REMARK    7  A    between atoms: O_11  and  C_48
REMARK    8  A    between atoms: O_11  and  C_61
REMARK    9  A    between atoms: O_13  and  C_56
REMARK   10  A    between atoms: O_13  and  C_62
REMARK   11  A    between atoms: O_14  and  C_57
REMARK   12  A    between atoms: C_16  and  C_24
REMARK   13  A    between atoms: C_17  and  C_28
REMARK   14  A    between atoms: C_24  and  C_30
REMARK   15  A    between atoms: C_24  and  C_33
REMARK   16  A    between atoms: C_30  and  C_39
REMARK   17  A    between atoms: C_36  and  C_43
REMARK   18  A    between atoms: C_41  and  C_52
REMARK   19  A    between atoms: C_44  and  C_53
REMARK   20  A    between atoms: C_51  and  C_58
REMARK   21  A    between atoms: C_59  and  C_60
REMARK                            x       y       z     vdW  Elec       q    Type
REMARK                         _______ _______ _______ _____ _____    ______ ____
ROOT
ATOM      1  O   UNL     1     -23.638   8.225 -21.643  0.00  0.00    +0.000 OA
ATOM      2  O   UNL     1     -24.765   6.153 -21.632  0.00  0.00    +0.000 OA
ATOM      3  O   UNL     1     -20.839   4.909 -22.027  0.00  0.00    +0.000 OA
ATOM      4  O   UNL     1     -17.406   3.293 -26.211  0.00  0.00    +0.000 OA
ATOM      5  O   UNL     1     -19.181   6.516 -21.963  0.00  0.00    +0.000 OA
ATOM      6  C   UNL     1     -23.821   6.986 -20.961  0.00  0.00    +0.000 C 
ATOM      7  C   UNL     1     -24.847   8.969 -21.762  0.00  0.00    +0.000 C 
ATOM      8  C   UNL     1     -25.359   9.385 -20.343  0.00  0.00    +0.000 C 
ATOM      9  C   UNL     1     -24.309   7.254 -19.518  0.00  0.00    +0.000 C 
ATOM     10  C   UNL     1     -22.454   6.269 -20.840  0.00  0.00    +0.000 C 
ATOM     11  C   UNL     1     -25.570   8.112 -19.508  0.00  0.00    +0.000 C 
ATOM     12  C   UNL     1     -21.956   5.776 -22.198  0.00  0.00    +0.000 C 
ATOM     13  C   UNL     1     -24.350   5.799 -22.948  0.00  0.00    +0.000 C 
ATOM     14  C   UNL     1     -23.060   4.976 -22.885  0.00  0.00    +0.000 C 
ATOM     15  C   UNL     1     -18.542   4.356 -24.341  0.00  0.00    +0.000 C 
ATOM     16  C   UNL     1     -18.514   4.337 -22.758  0.00  0.00    +0.000 C 
ATOM     17  C   UNL     1     -17.182   4.022 -25.011  0.00  0.00    +0.000 C 
ATOM     18  C   UNL     1     -26.667  10.191 -20.354  0.00  0.00    +0.000 C 
ATOM     19  C   UNL     1     -25.508   5.043 -23.641  0.00  0.00    +0.000 C 
ATOM     20  C   UNL     1     -16.232   3.246 -24.077  0.00  0.00    +0.000 C 
ATOM     21  C   UNL     1     -19.385   3.295 -24.962  0.00  0.00    +0.000 C 
ATOM     22  C   UNL     1     -19.507   5.312 -22.165  0.00  0.00    +0.000 C 
ATOM     23  C   UNL     1     -17.124   4.584 -22.204  0.00  0.00    +0.000 C 
ATOM     24  C   UNL     1     -16.047   4.051 -22.801  0.00  0.00    +0.000 C 
ATOM     25  C   UNL     1     -18.726   2.807 -26.195  0.00  0.00    +0.000 C 
ATOM     26  C   UNL     1     -25.119   4.296 -24.912  0.00  0.00    +0.000 C 
ATOM     27  C   UNL     1     -20.599   2.898 -24.543  0.00  0.00    +0.000 C 
ATOM     28  C   UNL     1     -24.947   2.950 -25.002  0.00  0.00    +0.000 C 
ATOM     29  C   UNL     1     -24.661   2.258 -26.346  0.00  0.00    +0.000 C 
ATOM     30  C   UNL     1     -14.672   4.274 -22.219  0.00  0.00    +0.000 C 
ATOM     31  C   UNL     1     -23.404   2.747 -27.142  0.00  0.00    +0.000 C 
ATOM     32  C   UNL     1     -21.600   2.352 -25.464  0.00  0.00    +0.000 C 
ATOM     33  C   UNL     1     -22.269   3.193 -26.259  0.00  0.00    +0.000 C 
ATOM     34  C   UNL     1     -25.197   2.060 -23.802  0.00  0.00    +0.000 C 
ATOM     35  C   UNL     1     -23.700   3.819 -28.206  0.00  0.00    +0.000 C 
ENDROOT
BRANCH  15  36
ATOM     36  O   UNL     1     -18.945   5.616 -24.831  0.00  0.00    +0.000 OA
ATOM     37  H   UNL     1     -18.168   6.108 -25.137  0.00  0.00    +0.000 HD
ENDBRANCH  15  36
BRANCH  20  38
ATOM     38  O   UNL     1     -16.765   1.974 -23.779  0.00  0.00    +0.000 OA
ATOM     39  H   UNL     1     -16.097   1.293 -23.959  0.00  0.00    +0.000 HD
ENDBRANCH  20  38
BRANCH   7  40
ATOM     40  C   UNL     1     -24.572  10.135 -22.768  0.00  0.00    +0.000 C 
ATOM     41  C   UNL     1     -23.070  10.417 -22.974  0.00  0.00    +0.000 C 
BRANCH  40  42
ATOM     42  C   UNL     1     -25.296  10.014 -24.132  0.00  0.00    +0.000 C 
ATOM     43  C   UNL     1     -24.725   8.899 -25.012  0.00  0.00    +0.000 C 
ENDBRANCH  40  42
ENDBRANCH   7  40
BRANCH  29  44
ATOM     44  O   UNL     1     -25.823   2.339 -27.161  0.00  0.00    +0.000 OA
BRANCH  44  46
ATOM     45  O   UNL     1     -27.975   2.775 -26.515  0.00  0.00    +0.000 OA
ATOM     46  C   UNL     1     -26.715   3.372 -26.770  0.00  0.00    +0.000 C 
ATOM     47  C   UNL     1     -29.149   4.882 -27.129  0.00  0.00    +0.000 C 
ATOM     48  C   UNL     1     -27.800   5.495 -27.562  0.00  0.00    +0.000 C 
ATOM     49  C   UNL     1     -26.816   4.381 -27.923  0.00  0.00    +0.000 C 
ATOM     50  C   UNL     1     -28.962   3.717 -26.115  0.00  0.00    +0.000 C 
ATOM     51  C   UNL     1     -28.764   4.183 -24.662  0.00  0.00    +0.000 C 
BRANCH  48  52
ATOM     52  O   UNL     1     -27.248   6.276 -26.518  0.00  0.00    +0.000 OA
ATOM     53  C   UNL     1     -27.984   7.466 -26.335  0.00  0.00    +0.000 C 
ENDBRANCH  48  52
BRANCH  47  54
ATOM     54  O   UNL     1     -29.800   4.395 -28.292  0.00  0.00    +0.000 OA
BRANCH  54  56
ATOM     55  O   UNL     1     -30.796   6.170 -29.349  0.00  0.00    +0.000 OA
ATOM     56  C   UNL     1     -29.687   5.281 -29.396  0.00  0.00    +0.000 C 
ATOM     57  C   UNL     1     -29.576   4.455 -30.699  0.00  0.00    +0.000 C 
ATOM     58  C   UNL     1     -29.523   5.384 -31.925  0.00  0.00    +0.000 C 
ATOM     59  C   UNL     1     -30.444   6.618 -31.746  0.00  0.00    +0.000 C 
ATOM     60  C   UNL     1     -31.450   6.396 -30.591  0.00  0.00    +0.000 C 
ATOM     61  C   UNL     1     -32.366   7.613 -30.425  0.00  0.00    +0.000 C 
BRANCH  58  62
ATOM     62  O   UNL     1     -28.194   5.845 -32.114  0.00  0.00    +0.000 OA
ATOM     63  C   UNL     1     -27.288   4.768 -32.210  0.00  0.00    +0.000 C 
ENDBRANCH  58  62
BRANCH  59  64
ATOM     64  O   UNL     1     -31.140   6.865 -32.943  0.00  0.00    +0.000 OA
ATOM     65  H   UNL     1     -31.669   7.673 -32.848  0.00  0.00    +0.000 HD
ENDBRANCH  59  64
ENDBRANCH  54  56
ENDBRANCH  47  54
ENDBRANCH  44  46
ENDBRANCH  29  44
TORSDOF 11
ENDMDL
MODEL 9
REMARK VINA RESULT:    -6.636      3.143      9.308
REMARK INTER + INTRA:         -12.483
REMARK INTER:                 -10.420
REMARK INTRA:                  -2.063
REMARK UNBOUND:                -2.162
REMARK  Name = 6321424
REMARK  21 active torsions:
REMARK  status: ('A' for Active; 'I' for Inactive)
REMARK    1  A    between atoms: O_5  and  C_25
REMARK    2  A    between atoms: O_6  and  C_31
REMARK    3  A    between atoms: O_8  and  C_42
REMARK    4  A    between atoms: O_8  and  C_46
REMARK    5  A    between atoms: O_10  and  C_47
REMARK    6  A    between atoms: O_10  and  C_54
REMARK    7  A    between atoms: O_11  and  C_48
REMARK    8  A    between atoms: O_11  and  C_61
REMARK    9  A    between atoms: O_13  and  C_56
REMARK   10  A    between atoms: O_13  and  C_62
REMARK   11  A    between atoms: O_14  and  C_57
REMARK   12  A    between atoms: C_16  and  C_24
REMARK   13  A    between atoms: C_17  and  C_28
REMARK   14  A    between atoms: C_24  and  C_30
REMARK   15  A    between atoms: C_24  and  C_33
REMARK   16  A    between atoms: C_30  and  C_39
REMARK   17  A    between atoms: C_36  and  C_43
REMARK   18  A    between atoms: C_41  and  C_52
REMARK   19  A    between atoms: C_44  and  C_53
REMARK   20  A    between atoms: C_51  and  C_58
REMARK   21  A    between atoms: C_59  and  C_60
REMARK                            x       y       z     vdW  Elec       q    Type
REMARK                         _______ _______ _______ _____ _____    ______ ____
ROOT
ATOM      1  O   UNL     1     -23.311   4.058 -26.069  0.00  0.00    +0.000 OA
ATOM      2  O   UNL     1     -24.611   4.997 -24.338  0.00  0.00    +0.000 OA
ATOM      3  O   UNL     1     -27.530   4.166 -27.149  0.00  0.00    +0.000 OA
ATOM      4  O   UNL     1     -30.365   6.989 -31.137  0.00  0.00    +0.000 OA
ATOM      5  O   UNL     1     -26.894   3.075 -29.084  0.00  0.00    +0.000 OA
ATOM      6  C   UNL     1     -24.351   3.831 -25.119  0.00  0.00    +0.000 C 
ATOM      7  C   UNL     1     -22.082   4.438 -25.456  0.00  0.00    +0.000 C 
ATOM      8  C   UNL     1     -21.544   3.265 -24.571  0.00  0.00    +0.000 C 
ATOM      9  C   UNL     1     -23.955   2.665 -24.183  0.00  0.00    +0.000 C 
ATOM     10  C   UNL     1     -25.630   3.383 -25.867  0.00  0.00    +0.000 C 
ATOM     11  C   UNL     1     -22.607   2.922 -23.516  0.00  0.00    +0.000 C 
ATOM     12  C   UNL     1     -26.233   4.526 -26.683  0.00  0.00    +0.000 C 
ATOM     13  C   UNL     1     -25.055   6.099 -25.123  0.00  0.00    +0.000 C 
ATOM     14  C   UNL     1     -26.388   5.758 -25.795  0.00  0.00    +0.000 C 
ATOM     15  C   UNL     1     -28.985   5.490 -29.808  0.00  0.00    +0.000 C 
ATOM     16  C   UNL     1     -29.090   4.076 -29.106  0.00  0.00    +0.000 C 
ATOM     17  C   UNL     1     -29.885   5.652 -31.063  0.00  0.00    +0.000 C 
ATOM     18  C   UNL     1     -20.219   3.570 -23.855  0.00  0.00    +0.000 C 
ATOM     19  C   UNL     1     -25.145   7.346 -24.213  0.00  0.00    +0.000 C 
ATOM     20  C   UNL     1     -31.059   4.654 -31.087  0.00  0.00    +0.000 C 
ATOM     21  C   UNL     1     -29.495   6.630 -28.995  0.00  0.00    +0.000 C 
ATOM     22  C   UNL     1     -27.792   3.681 -28.435  0.00  0.00    +0.000 C 
ATOM     23  C   UNL     1     -29.550   2.992 -30.061  0.00  0.00    +0.000 C 
ATOM     24  C   UNL     1     -30.498   3.247 -30.977  0.00  0.00    +0.000 C 
ATOM     25  C   UNL     1     -30.175   7.599 -29.883  0.00  0.00    +0.000 C 
ATOM     26  C   UNL     1     -25.925   8.517 -24.801  0.00  0.00    +0.000 C 
ATOM     27  C   UNL     1     -29.296   6.819 -27.678  0.00  0.00    +0.000 C 
ATOM     28  C   UNL     1     -27.189   8.869 -24.441  0.00  0.00    +0.000 C 
ATOM     29  C   UNL     1     -27.869  10.129 -25.002  0.00  0.00    +0.000 C 
ATOM     30  C   UNL     1     -30.973   2.149 -31.898  0.00  0.00    +0.000 C 
ATOM     31  C   UNL     1     -27.989  10.237 -26.560  0.00  0.00    +0.000 C 
ATOM     32  C   UNL     1     -29.264   8.156 -27.080  0.00  0.00    +0.000 C 
ATOM     33  C   UNL     1     -28.171   8.908 -27.243  0.00  0.00    +0.000 C 
ATOM     34  C   UNL     1     -27.914   8.119 -23.343  0.00  0.00    +0.000 C 
ATOM     35  C   UNL     1     -26.854  11.028 -27.234  0.00  0.00    +0.000 C 
ENDROOT
BRANCH  15  36
ATOM     36  O   UNL     1     -27.661   5.764 -30.211  0.00  0.00    +0.000 OA
ATOM     37  H   UNL     1     -27.159   6.114 -29.458  0.00  0.00    +0.000 HD
ENDBRANCH  15  36
BRANCH  20  38
ATOM     38  O   UNL     1     -31.946   4.911 -30.019  0.00  0.00    +0.000 OA
ATOM     39  H   UNL     1     -32.837   4.612 -30.259  0.00  0.00    +0.000 HD
ENDBRANCH  20  38
BRANCH   7  40
ATOM     40  C   UNL     1     -21.136   4.936 -26.597  0.00  0.00    +0.000 C 
ATOM     41  C   UNL     1     -21.772   4.846 -27.997  0.00  0.00    +0.000 C 
BRANCH  40  42
ATOM     42  C   UNL     1     -20.510   6.336 -26.371  0.00  0.00    +0.000 C 
ATOM     43  C   UNL     1     -21.525   7.367 -25.869  0.00  0.00    +0.000 C 
ENDBRANCH  40  42
ENDBRANCH   7  40
BRANCH  29  44
ATOM     44  O   UNL     1     -27.214  11.277 -24.478  0.00  0.00    +0.000 OA
BRANCH  44  46
ATOM     45  O   UNL     1     -27.675  13.472 -24.020  0.00  0.00    +0.000 OA
ATOM     46  C   UNL     1     -28.078  12.139 -23.754  0.00  0.00    +0.000 C 
ATOM     47  C   UNL     1     -28.520  14.220 -21.802  0.00  0.00    +0.000 C 
ATOM     48  C   UNL     1     -28.819  12.752 -21.433  0.00  0.00    +0.000 C 
ATOM     49  C   UNL     1     -27.933  11.817 -22.259  0.00  0.00    +0.000 C 
ATOM     50  C   UNL     1     -28.470  14.436 -23.342  0.00  0.00    +0.000 C 
ATOM     51  C   UNL     1     -29.854  14.606 -23.992  0.00  0.00    +0.000 C 
BRANCH  48  52
ATOM     52  O   UNL     1     -30.177  12.440 -21.684  0.00  0.00    +0.000 OA
ATOM     53  C   UNL     1     -31.021  13.063 -20.740  0.00  0.00    +0.000 C 
ENDBRANCH  48  52
BRANCH  47  54
ATOM     54  O   UNL     1     -27.265  14.565 -21.236  0.00  0.00    +0.000 OA
BRANCH  54  56
ATOM     55  O   UNL     1     -27.359  14.512 -18.946  0.00  0.00    +0.000 OA
ATOM     56  C   UNL     1     -27.390  15.375 -20.077  0.00  0.00    +0.000 C 
ATOM     57  C   UNL     1     -28.666  16.238 -20.196  0.00  0.00    +0.000 C 
ATOM     58  C   UNL     1     -28.872  17.079 -18.923  0.00  0.00    +0.000 C 
ATOM     59  C   UNL     1     -28.461  16.295 -17.651  0.00  0.00    +0.000 C 
ATOM     60  C   UNL     1     -28.334  14.782 -17.947  0.00  0.00    +0.000 C 
ATOM     61  C   UNL     1     -27.939  14.010 -16.685  0.00  0.00    +0.000 C 
BRANCH  58  62
ATOM     62  O   UNL     1     -28.080  18.254 -18.997  0.00  0.00    +0.000 OA
ATOM     63  C   UNL     1     -28.382  19.001 -20.155  0.00  0.00    +0.000 C 
ENDBRANCH  58  62
BRANCH  59  64
ATOM     64  O   UNL     1     -29.415  16.504 -16.638  0.00  0.00    +0.000 OA
ATOM     65  H   UNL     1     -29.465  15.716 -16.074  0.00  0.00    +0.000 HD
ENDBRANCH  59  64
ENDBRANCH  54  56
ENDBRANCH  47  54
ENDBRANCH  44  46
ENDBRANCH  29  44
TORSDOF 11
ENDMDL
