MODEL 1
REMARK VINA RESULT:    -7.305      0.000      0.000
REMARK INTER + INTRA:         -17.695
REMARK INTER:                 -13.925
REMARK INTRA:                  -3.770
REMARK UNBOUND:                -3.770
REMARK  Name = 92727
REMARK  20 active torsions:
REMARK  status: ('A' for Active; 'I' for Inactive)
REMARK    1  A    between atoms: O_1  and  C_13
REMARK    2  A    between atoms: O_5  and  C_32
REMARK    3  A    between atoms: O_5  and  C_39
REMARK    4  A    between atoms: N_6  and  C_11
REMARK    5  A    between atoms: N_7  and  C_10
REMARK    6  A    between atoms: N_8  and  C_15
REMARK    7  A    between atoms: C_10  and  C_12
REMARK    8  A    between atoms: C_10  and  C_16
REMARK    9  A    between atoms: C_11  and  C_14
REMARK   10  A    between atoms: C_11  and  C_17
REMARK   11  A    between atoms: C_12  and  C_13
REMARK   12  A    between atoms: C_13  and  C_15
REMARK   13  A    between atoms: C_14  and  C_22
REMARK   14  A    between atoms: C_14  and  C_23
REMARK   15  A    between atoms: C_15  and  C_20
REMARK   16  A    between atoms: C_16  and  C_25
REMARK   17  A    between atoms: C_20  and  C_26
REMARK   18  A    between atoms: C_27  and  C_32
REMARK   19  A    between atoms: C_40  and  C_44
REMARK   20  A    between atoms: C_41  and  C_45
REMARK                            x       y       z     vdW  Elec       q    Type
REMARK                         _______ _______ _______ _____ _____    ______ ____
ROOT
ATOM      1  C   UNL     1     -22.873   7.280 -23.158  0.00  0.00    +0.000 C 
ENDROOT
BRANCH   1   2
ATOM      2  C   UNL     1     -21.617   7.194 -24.053  0.00  0.00    +0.000 C 
BRANCH   2   4
ATOM      3  O   UNL     1     -19.113   6.583 -22.804  0.00  0.00    +0.000 OA
ATOM      4  N   UNL     1     -21.013   5.860 -23.952  0.00  0.00    +0.000 N 
ATOM      5  C   UNL     1     -19.785   5.612 -23.248  0.00  0.00    +0.000 C 
ATOM      6  H   UNL     1     -21.470   5.103 -24.386  0.00  0.00    +0.000 HD
BRANCH   5   7
ATOM      7  C   UNL     1     -19.374   4.191 -22.927  0.00  0.00    +0.000 C 
BRANCH   7   9
ATOM      8  O   UNL     1     -17.952   3.131 -25.184  0.00  0.00    +0.000 OA
ATOM      9  N   UNL     1     -17.901   4.017 -23.003  0.00  0.00    +0.000 N 
ATOM     10  N   UNL     1     -15.865   3.835 -24.427  0.00  0.00    +0.000 N 
ATOM     11  C   UNL     1     -17.023   4.275 -21.850  0.00  0.00    +0.000 C 
ATOM     12  C   UNL     1     -15.786   5.066 -22.282  0.00  0.00    +0.000 C 
ATOM     13  C   UNL     1     -17.273   3.630 -24.245  0.00  0.00    +0.000 C 
ATOM     14  C   UNL     1     -14.998   4.284 -23.339  0.00  0.00    +0.000 C 
ATOM     15  H   UNL     1     -15.469   3.668 -25.313  0.00  0.00    +0.000 HD
ENDBRANCH   7   9
BRANCH   7  16
ATOM     16  C   UNL     1     -19.977   3.636 -21.600  0.00  0.00    +0.000 C 
ATOM     17  C   UNL     1     -20.866   2.391 -21.765  0.00  0.00    +0.000 C 
ATOM     18  C   UNL     1     -20.742   4.729 -20.842  0.00  0.00    +0.000 C 
ENDBRANCH   7  16
ENDBRANCH   5   7
ENDBRANCH   2   4
BRANCH   2  19
ATOM     19  C   UNL     1     -21.988   7.495 -25.519  0.00  0.00    +0.000 C 
BRANCH  19  20
ATOM     20  C   UNL     1     -21.158   8.619 -26.086  0.00  0.00    +0.000 A 
ATOM     21  C   UNL     1     -19.763   8.630 -25.914  0.00  0.00    +0.000 A 
ATOM     22  C   UNL     1     -21.766   9.639 -26.836  0.00  0.00    +0.000 A 
ATOM     23  C   UNL     1     -18.990   9.637 -26.500  0.00  0.00    +0.000 A 
ATOM     24  C   UNL     1     -20.989  10.643 -27.423  0.00  0.00    +0.000 A 
ATOM     25  C   UNL     1     -19.603  10.641 -27.257  0.00  0.00    +0.000 A 
ENDBRANCH  19  20
ENDBRANCH   2  19
ENDBRANCH   1   2
BRANCH   1  26
ATOM     26  C   UNL     1     -22.813   8.450 -22.149  0.00  0.00    +0.000 C 
BRANCH  26  27
ATOM     27  O   UNL     1     -23.188   7.987 -20.876  0.00  0.00    +0.000 OA
ATOM     28  H   UNL     1     -24.152   7.889 -20.837  0.00  0.00    +0.000 HD
ENDBRANCH  26  27
BRANCH  26  29
ATOM     29  C   UNL     1     -23.710   9.651 -22.545  0.00  0.00    +0.000 C 
BRANCH  29  31
ATOM     30  O   UNL     1     -26.528   9.602 -21.984  0.00  0.00    +0.000 OA
ATOM     31  N   UNL     1     -24.356  10.229 -21.360  0.00  0.00    +0.000 N 
ATOM     32  C   UNL     1     -25.778  10.205 -21.165  0.00  0.00    +0.000 C 
ATOM     33  H   UNL     1     -23.792  10.648 -20.671  0.00  0.00    +0.000 HD
BRANCH  32  34
ATOM     34  C   UNL     1     -26.399  10.933 -20.018  0.00  0.00    +0.000 C 
BRANCH  34  35
ATOM     35  O   UNL     1     -27.508  11.687 -20.493  0.00  0.00    +0.000 OA
BRANCH  35  36
ATOM     36  C   UNL     1     -27.476  13.082 -20.585  0.00  0.00    +0.000 A 
ATOM     37  C   UNL     1     -27.319  13.679 -21.851  0.00  0.00    +0.000 A 
ATOM     38  C   UNL     1     -27.632  13.891 -19.438  0.00  0.00    +0.000 A 
ATOM     39  C   UNL     1     -27.285  15.077 -21.960  0.00  0.00    +0.000 A 
ATOM     40  C   UNL     1     -27.572  15.288 -19.568  0.00  0.00    +0.000 A 
ATOM     41  C   UNL     1     -27.207  12.822 -23.077  0.00  0.00    +0.000 C 
ATOM     42  C   UNL     1     -27.841  13.292 -18.075  0.00  0.00    +0.000 C 
ATOM     43  C   UNL     1     -27.400  15.875 -20.822  0.00  0.00    +0.000 A 
ENDBRANCH  35  36
ENDBRANCH  34  35
ENDBRANCH  32  34
ENDBRANCH  29  31
BRANCH  29  44
ATOM     44  C   UNL     1     -22.950  10.745 -23.325  0.00  0.00    +0.000 C 
BRANCH  44  45
ATOM     45  C   UNL     1     -23.746  11.214 -24.518  0.00  0.00    +0.000 A 
ATOM     46  C   UNL     1     -23.440  12.434 -25.143  0.00  0.00    +0.000 A 
ATOM     47  C   UNL     1     -24.836  10.457 -24.984  0.00  0.00    +0.000 A 
ATOM     48  C   UNL     1     -24.199  12.877 -26.230  0.00  0.00    +0.000 A 
ATOM     49  C   UNL     1     -25.598  10.912 -26.063  0.00  0.00    +0.000 A 
ATOM     50  C   UNL     1     -25.277  12.120 -26.689  0.00  0.00    +0.000 A 
ENDBRANCH  44  45
ENDBRANCH  29  44
ENDBRANCH  26  29
ENDBRANCH   1  26
TORSDOF 16
ENDMDL
MODEL 2
REMARK VINA RESULT:    -7.296      2.589      5.217
REMARK INTER + INTRA:         -17.677
REMARK INTER:                 -14.005
REMARK INTRA:                  -3.672
REMARK UNBOUND:                -3.770
REMARK  Name = 92727
REMARK  20 active torsions:
REMARK  status: ('A' for Active; 'I' for Inactive)
REMARK    1  A    between atoms: O_1  and  C_13
REMARK    2  A    between atoms: O_5  and  C_32
REMARK    3  A    between atoms: O_5  and  C_39
REMARK    4  A    between atoms: N_6  and  C_11
REMARK    5  A    between atoms: N_7  and  C_10
REMARK    6  A    between atoms: N_8  and  C_15
REMARK    7  A    between atoms: C_10  and  C_12
REMARK    8  A    between atoms: C_10  and  C_16
REMARK    9  A    between atoms: C_11  and  C_14
REMARK   10  A    between atoms: C_11  and  C_17
REMARK   11  A    between atoms: C_12  and  C_13
REMARK   12  A    between atoms: C_13  and  C_15
REMARK   13  A    between atoms: C_14  and  C_22
REMARK   14  A    between atoms: C_14  and  C_23
REMARK   15  A    between atoms: C_15  and  C_20
REMARK   16  A    between atoms: C_16  and  C_25
REMARK   17  A    between atoms: C_20  and  C_26
REMARK   18  A    between atoms: C_27  and  C_32
REMARK   19  A    between atoms: C_40  and  C_44
REMARK   20  A    between atoms: C_41  and  C_45
REMARK                            x       y       z     vdW  Elec       q    Type
REMARK                         _______ _______ _______ _____ _____    ______ ____
ROOT
ATOM      1  C   UNL     1     -23.001   9.128 -22.397  0.00  0.00    +0.000 C 
ENDROOT
BRANCH   1   2
ATOM      2  C   UNL     1     -22.510   7.671 -22.547  0.00  0.00    +0.000 C 
BRANCH   2   4
ATOM      3  O   UNL     1     -21.270   6.178 -24.652  0.00  0.00    +0.000 OA
ATOM      4  N   UNL     1     -21.074   7.649 -22.850  0.00  0.00    +0.000 N 
ATOM      5  C   UNL     1     -20.526   6.932 -23.968  0.00  0.00    +0.000 C 
ATOM      6  H   UNL     1     -20.461   8.146 -22.261  0.00  0.00    +0.000 HD
BRANCH   5   7
ATOM      7  C   UNL     1     -19.097   7.186 -24.398  0.00  0.00    +0.000 C 
BRANCH   7   9
ATOM      8  O   UNL     1     -16.353   7.700 -23.732  0.00  0.00    +0.000 OA
ATOM      9  N   UNL     1     -18.163   6.195 -23.807  0.00  0.00    +0.000 N 
ATOM     10  N   UNL     1     -16.114   5.767 -22.455  0.00  0.00    +0.000 N 
ATOM     11  C   UNL     1     -18.540   4.786 -23.609  0.00  0.00    +0.000 C 
ATOM     12  C   UNL     1     -18.092   4.298 -22.229  0.00  0.00    +0.000 C 
ATOM     13  C   UNL     1     -16.852   6.603 -23.357  0.00  0.00    +0.000 C 
ATOM     14  C   UNL     1     -16.572   4.429 -22.086  0.00  0.00    +0.000 C 
ATOM     15  H   UNL     1     -15.272   6.105 -22.072  0.00  0.00    +0.000 HD
ENDBRANCH   7   9
BRANCH   7  16
ATOM     16  C   UNL     1     -18.912   7.340 -25.940  0.00  0.00    +0.000 C 
ATOM     17  C   UNL     1     -17.903   6.365 -26.571  0.00  0.00    +0.000 C 
ATOM     18  C   UNL     1     -18.548   8.784 -26.311  0.00  0.00    +0.000 C 
ENDBRANCH   7  16
ENDBRANCH   5   7
ENDBRANCH   2   4
BRANCH   2  19
ATOM     19  C   UNL     1     -22.788   6.881 -21.252  0.00  0.00    +0.000 C 
BRANCH  19  20
ATOM     20  C   UNL     1     -22.663   5.395 -21.466  0.00  0.00    +0.000 A 
ATOM     21  C   UNL     1     -23.581   4.713 -22.283  0.00  0.00    +0.000 A 
ATOM     22  C   UNL     1     -21.596   4.684 -20.891  0.00  0.00    +0.000 A 
ATOM     23  C   UNL     1     -23.422   3.346 -22.533  0.00  0.00    +0.000 A 
ATOM     24  C   UNL     1     -21.438   3.318 -21.147  0.00  0.00    +0.000 A 
ATOM     25  C   UNL     1     -22.348   2.651 -21.968  0.00  0.00    +0.000 A 
ENDBRANCH  19  20
ENDBRANCH   2  19
ENDBRANCH   1   2
BRANCH   1  26
ATOM     26  C   UNL     1     -23.106   9.869 -23.750  0.00  0.00    +0.000 C 
BRANCH  26  27
ATOM     27  O   UNL     1     -23.485  11.203 -23.522  0.00  0.00    +0.000 OA
ATOM     28  H   UNL     1     -22.897  11.796 -24.016  0.00  0.00    +0.000 HD
ENDBRANCH  26  27
BRANCH  26  29
ATOM     29  C   UNL     1     -24.106   9.211 -24.736  0.00  0.00    +0.000 C 
BRANCH  29  31
ATOM     30  O   UNL     1     -25.948   7.104 -24.083  0.00  0.00    +0.000 OA
ATOM     31  N   UNL     1     -25.488   9.396 -24.275  0.00  0.00    +0.000 N 
ATOM     32  C   UNL     1     -26.367   8.294 -24.007  0.00  0.00    +0.000 C 
ATOM     33  H   UNL     1     -25.823  10.312 -24.143  0.00  0.00    +0.000 HD
BRANCH  32  34
ATOM     34  C   UNL     1     -27.806   8.534 -23.682  0.00  0.00    +0.000 C 
BRANCH  34  35
ATOM     35  O   UNL     1     -27.896   9.127 -22.392  0.00  0.00    +0.000 OA
BRANCH  35  36
ATOM     36  C   UNL     1     -27.173   8.644 -21.298  0.00  0.00    +0.000 A 
ATOM     37  C   UNL     1     -26.259   9.500 -20.652  0.00  0.00    +0.000 A 
ATOM     38  C   UNL     1     -27.371   7.331 -20.816  0.00  0.00    +0.000 A 
ATOM     39  C   UNL     1     -25.525   9.031 -19.553  0.00  0.00    +0.000 A 
ATOM     40  C   UNL     1     -26.608   6.875 -19.728  0.00  0.00    +0.000 A 
ATOM     41  C   UNL     1     -26.087  10.912 -21.128  0.00  0.00    +0.000 C 
ATOM     42  C   UNL     1     -28.364   6.400 -21.454  0.00  0.00    +0.000 C 
ATOM     43  C   UNL     1     -25.692   7.721 -19.102  0.00  0.00    +0.000 A 
ENDBRANCH  35  36
ENDBRANCH  34  35
ENDBRANCH  32  34
ENDBRANCH  29  31
BRANCH  29  44
ATOM     44  C   UNL     1     -23.954   9.721 -26.185  0.00  0.00    +0.000 C 
BRANCH  44  45
ATOM     45  C   UNL     1     -24.109   8.595 -27.177  0.00  0.00    +0.000 A 
ATOM     46  C   UNL     1     -22.981   8.034 -27.798  0.00  0.00    +0.000 A 
ATOM     47  C   UNL     1     -25.389   8.129 -27.525  0.00  0.00    +0.000 A 
ATOM     48  C   UNL     1     -23.132   7.009 -28.737  0.00  0.00    +0.000 A 
ATOM     49  C   UNL     1     -25.535   7.113 -28.474  0.00  0.00    +0.000 A 
ATOM     50  C   UNL     1     -24.405   6.551 -29.077  0.00  0.00    +0.000 A 
ENDBRANCH  44  45
ENDBRANCH  29  44
ENDBRANCH  26  29
ENDBRANCH   1  26
TORSDOF 16
ENDMDL
MODEL 3
REMARK VINA RESULT:    -6.998      2.748      6.426
REMARK INTER + INTRA:         -17.109
REMARK INTER:                 -13.414
REMARK INTRA:                  -3.695
REMARK UNBOUND:                -3.770
REMARK  Name = 92727
REMARK  20 active torsions:
REMARK  status: ('A' for Active; 'I' for Inactive)
REMARK    1  A    between atoms: O_1  and  C_13
REMARK    2  A    between atoms: O_5  and  C_32
REMARK    3  A    between atoms: O_5  and  C_39
REMARK    4  A    between atoms: N_6  and  C_11
REMARK    5  A    between atoms: N_7  and  C_10
REMARK    6  A    between atoms: N_8  and  C_15
REMARK    7  A    between atoms: C_10  and  C_12
REMARK    8  A    between atoms: C_10  and  C_16
REMARK    9  A    between atoms: C_11  and  C_14
REMARK   10  A    between atoms: C_11  and  C_17
REMARK   11  A    between atoms: C_12  and  C_13
REMARK   12  A    between atoms: C_13  and  C_15
REMARK   13  A    between atoms: C_14  and  C_22
REMARK   14  A    between atoms: C_14  and  C_23
REMARK   15  A    between atoms: C_15  and  C_20
REMARK   16  A    between atoms: C_16  and  C_25
REMARK   17  A    between atoms: C_20  and  C_26
REMARK   18  A    between atoms: C_27  and  C_32
REMARK   19  A    between atoms: C_40  and  C_44
REMARK   20  A    between atoms: C_41  and  C_45
REMARK                            x       y       z     vdW  Elec       q    Type
REMARK                         _______ _______ _______ _____ _____    ______ ____
ROOT
ATOM      1  C   UNL     1     -21.950   7.371 -24.015  0.00  0.00    +0.000 C 
ENDROOT
BRANCH   1   2
ATOM      2  C   UNL     1     -20.434   7.249 -24.281  0.00  0.00    +0.000 C 
BRANCH   2   4
ATOM      3  O   UNL     1     -18.007   6.979 -22.785  0.00  0.00    +0.000 OA
ATOM      4  N   UNL     1     -19.917   6.002 -23.707  0.00  0.00    +0.000 N 
ATOM      5  C   UNL     1     -18.725   5.949 -22.904  0.00  0.00    +0.000 C 
ATOM      6  H   UNL     1     -20.407   5.165 -23.878  0.00  0.00    +0.000 HD
BRANCH   5   7
ATOM      7  C   UNL     1     -18.411   4.704 -22.102  0.00  0.00    +0.000 C 
BRANCH   7   9
ATOM      8  O   UNL     1     -20.408   5.070 -20.075  0.00  0.00    +0.000 OA
ATOM      9  N   UNL     1     -19.612   3.850 -21.924  0.00  0.00    +0.000 N 
ATOM     10  N   UNL     1     -21.944   3.633 -21.075  0.00  0.00    +0.000 N 
ATOM     11  C   UNL     1     -19.833   2.635 -22.725  0.00  0.00    +0.000 C 
ATOM     12  C   UNL     1     -21.284   2.564 -23.207  0.00  0.00    +0.000 C 
ATOM     13  C   UNL     1     -20.638   4.220 -20.978  0.00  0.00    +0.000 C 
ATOM     14  C   UNL     1     -22.241   2.549 -22.009  0.00  0.00    +0.000 C 
ATOM     15  H   UNL     1     -22.664   3.972 -20.494  0.00  0.00    +0.000 HD
ENDBRANCH   7   9
BRANCH   7  16
ATOM     16  C   UNL     1     -17.176   3.904 -22.623  0.00  0.00    +0.000 C 
ATOM     17  C   UNL     1     -15.842   4.264 -21.948  0.00  0.00    +0.000 C 
ATOM     18  C   UNL     1     -17.042   4.028 -24.147  0.00  0.00    +0.000 C 
ENDBRANCH   7  16
ENDBRANCH   5   7
ENDBRANCH   2   4
BRANCH   2  19
ATOM     19  C   UNL     1     -20.156   7.286 -25.797  0.00  0.00    +0.000 C 
BRANCH  19  20
ATOM     20  C   UNL     1     -20.255   5.916 -26.418  0.00  0.00    +0.000 A 
ATOM     21  C   UNL     1     -19.107   5.277 -26.917  0.00  0.00    +0.000 A 
ATOM     22  C   UNL     1     -21.487   5.243 -26.457  0.00  0.00    +0.000 A 
ATOM     23  C   UNL     1     -19.191   3.979 -27.430  0.00  0.00    +0.000 A 
ATOM     24  C   UNL     1     -21.567   3.944 -26.967  0.00  0.00    +0.000 A 
ATOM     25  C   UNL     1     -20.420   3.312 -27.451  0.00  0.00    +0.000 A 
ENDBRANCH  19  20
ENDBRANCH   2  19
ENDBRANCH   1   2
BRANCH   1  26
ATOM     26  C   UNL     1     -22.273   8.141 -22.713  0.00  0.00    +0.000 C 
BRANCH  26  27
ATOM     27  O   UNL     1     -21.751   7.438 -21.614  0.00  0.00    +0.000 OA
ATOM     28  H   UNL     1     -20.979   7.909 -21.264  0.00  0.00    +0.000 HD
ENDBRANCH  26  27
BRANCH  26  29
ATOM     29  C   UNL     1     -23.790   8.380 -22.499  0.00  0.00    +0.000 C 
BRANCH  29  31
ATOM     30  O   UNL     1     -25.169   9.895 -24.514  0.00  0.00    +0.000 OA
ATOM     31  N   UNL     1     -24.566   7.816 -23.611  0.00  0.00    +0.000 N 
ATOM     32  C   UNL     1     -25.266   8.636 -24.559  0.00  0.00    +0.000 C 
ATOM     33  H   UNL     1     -24.605   6.838 -23.711  0.00  0.00    +0.000 HD
BRANCH  32  34
ATOM     34  C   UNL     1     -26.160   8.015 -25.583  0.00  0.00    +0.000 C 
BRANCH  34  35
ATOM     35  O   UNL     1     -25.798   8.504 -26.869  0.00  0.00    +0.000 OA
BRANCH  35  36
ATOM     36  C   UNL     1     -25.222   7.683 -27.844  0.00  0.00    +0.000 A 
ATOM     37  C   UNL     1     -23.837   7.770 -28.078  0.00  0.00    +0.000 A 
ATOM     38  C   UNL     1     -26.003   6.753 -28.566  0.00  0.00    +0.000 A 
ATOM     39  C   UNL     1     -23.243   6.954 -29.052  0.00  0.00    +0.000 A 
ATOM     40  C   UNL     1     -25.392   5.962 -29.553  0.00  0.00    +0.000 A 
ATOM     41  C   UNL     1     -22.997   8.718 -27.274  0.00  0.00    +0.000 C 
ATOM     42  C   UNL     1     -27.478   6.603 -28.319  0.00  0.00    +0.000 C 
ATOM     43  C   UNL     1     -24.021   6.063 -29.792  0.00  0.00    +0.000 A 
ENDBRANCH  35  36
ENDBRANCH  34  35
ENDBRANCH  32  34
ENDBRANCH  29  31
BRANCH  29  44
ATOM     44  C   UNL     1     -24.308   7.828 -21.153  0.00  0.00    +0.000 C 
BRANCH  44  45
ATOM     45  C   UNL     1     -25.304   8.772 -20.527  0.00  0.00    +0.000 A 
ATOM     46  C   UNL     1     -26.252   8.297 -19.606  0.00  0.00    +0.000 A 
ATOM     47  C   UNL     1     -25.324  10.128 -20.897  0.00  0.00    +0.000 A 
ATOM     48  C   UNL     1     -27.191   9.170 -19.049  0.00  0.00    +0.000 A 
ATOM     49  C   UNL     1     -26.273  10.994 -20.347  0.00  0.00    +0.000 A 
ATOM     50  C   UNL     1     -27.204  10.515 -19.420  0.00  0.00    +0.000 A 
ENDBRANCH  44  45
ENDBRANCH  29  44
ENDBRANCH  26  29
ENDBRANCH   1  26
TORSDOF 16
ENDMDL
MODEL 4
REMARK VINA RESULT:    -6.969      3.231      9.733
REMARK INTER + INTRA:         -17.053
REMARK INTER:                 -12.215
REMARK INTRA:                  -4.838
REMARK UNBOUND:                -3.770
REMARK  Name = 92727
REMARK  20 active torsions:
REMARK  status: ('A' for Active; 'I' for Inactive)
REMARK    1  A    between atoms: O_1  and  C_13
REMARK    2  A    between atoms: O_5  and  C_32
REMARK    3  A    between atoms: O_5  and  C_39
REMARK    4  A    between atoms: N_6  and  C_11
REMARK    5  A    between atoms: N_7  and  C_10
REMARK    6  A    between atoms: N_8  and  C_15
REMARK    7  A    between atoms: C_10  and  C_12
REMARK    8  A    between atoms: C_10  and  C_16
REMARK    9  A    between atoms: C_11  and  C_14
REMARK   10  A    between atoms: C_11  and  C_17
REMARK   11  A    between atoms: C_12  and  C_13
REMARK   12  A    between atoms: C_13  and  C_15
REMARK   13  A    between atoms: C_14  and  C_22
REMARK   14  A    between atoms: C_14  and  C_23
REMARK   15  A    between atoms: C_15  and  C_20
REMARK   16  A    between atoms: C_16  and  C_25
REMARK   17  A    between atoms: C_20  and  C_26
REMARK   18  A    between atoms: C_27  and  C_32
REMARK   19  A    between atoms: C_40  and  C_44
REMARK   20  A    between atoms: C_41  and  C_45
REMARK                            x       y       z     vdW  Elec       q    Type
REMARK                         _______ _______ _______ _____ _____    ______ ____
ROOT
ATOM      1  C   UNL     1     -21.788   7.645 -21.462  0.00  0.00    +0.000 C 
ENDROOT
BRANCH   1   2
ATOM      2  C   UNL     1     -23.314   7.781 -21.263  0.00  0.00    +0.000 C 
BRANCH   2   4
ATOM      3  O   UNL     1     -24.116  10.453 -21.906  0.00  0.00    +0.000 OA
ATOM      4  N   UNL     1     -23.953   8.205 -22.514  0.00  0.00    +0.000 N 
ATOM      5  C   UNL     1     -24.266   9.578 -22.801  0.00  0.00    +0.000 C 
ATOM      6  H   UNL     1     -24.176   7.520 -23.185  0.00  0.00    +0.000 HD
BRANCH   5   7
ATOM      7  C   UNL     1     -24.644   9.986 -24.210  0.00  0.00    +0.000 C 
BRANCH   7   9
ATOM      8  O   UNL     1     -22.920  12.198 -24.819  0.00  0.00    +0.000 OA
ATOM      9  N   UNL     1     -23.478   9.931 -25.127  0.00  0.00    +0.000 N 
ATOM     10  N   UNL     1     -21.273  10.876 -25.802  0.00  0.00    +0.000 N 
ATOM     11  C   UNL     1     -23.160   8.730 -25.917  0.00  0.00    +0.000 C 
ATOM     12  C   UNL     1     -21.660   8.433 -25.865  0.00  0.00    +0.000 C 
ATOM     13  C   UNL     1     -22.579  11.057 -25.236  0.00  0.00    +0.000 C 
ATOM     14  C   UNL     1     -20.863   9.618 -26.422  0.00  0.00    +0.000 C 
ATOM     15  H   UNL     1     -20.632  11.624 -25.772  0.00  0.00    +0.000 HD
ENDBRANCH   7   9
BRANCH   7  16
ATOM     16  C   UNL     1     -25.891   9.240 -24.778  0.00  0.00    +0.000 C 
ATOM     17  C   UNL     1     -26.503   9.872 -26.039  0.00  0.00    +0.000 C 
ATOM     18  C   UNL     1     -26.970   9.070 -23.700  0.00  0.00    +0.000 C 
ENDBRANCH   7  16
ENDBRANCH   5   7
ENDBRANCH   2   4
BRANCH   2  19
ATOM     19  C   UNL     1     -23.910   6.437 -20.796  0.00  0.00    +0.000 C 
BRANCH  19  20
ATOM     20  C   UNL     1     -25.415   6.436 -20.874  0.00  0.00    +0.000 A 
ATOM     21  C   UNL     1     -26.172   7.268 -20.031  0.00  0.00    +0.000 A 
ATOM     22  C   UNL     1     -26.074   5.640 -21.825  0.00  0.00    +0.000 A 
ATOM     23  C   UNL     1     -27.564   7.314 -20.153  0.00  0.00    +0.000 A 
ATOM     24  C   UNL     1     -27.466   5.691 -21.946  0.00  0.00    +0.000 A 
ATOM     25  C   UNL     1     -28.210   6.529 -21.112  0.00  0.00    +0.000 A 
ENDBRANCH  19  20
ENDBRANCH   2  19
ENDBRANCH   1   2
BRANCH   1  26
ATOM     26  C   UNL     1     -21.231   6.299 -20.945  0.00  0.00    +0.000 C 
BRANCH  26  27
ATOM     27  O   UNL     1     -20.476   6.522 -19.781  0.00  0.00    +0.000 OA
ATOM     28  H   UNL     1     -20.687   5.842 -19.122  0.00  0.00    +0.000 HD
ENDBRANCH  26  27
BRANCH  26  29
ATOM     29  C   UNL     1     -20.360   5.552 -21.989  0.00  0.00    +0.000 C 
BRANCH  29  31
ATOM     30  O   UNL     1     -20.621   2.693 -22.121  0.00  0.00    +0.000 OA
ATOM     31  N   UNL     1     -21.206   4.813 -22.936  0.00  0.00    +0.000 N 
ATOM     32  C   UNL     1     -21.255   3.379 -22.972  0.00  0.00    +0.000 C 
ATOM     33  H   UNL     1     -21.762   5.321 -23.569  0.00  0.00    +0.000 HD
BRANCH  32  34
ATOM     34  C   UNL     1     -22.015   2.673 -24.047  0.00  0.00    +0.000 C 
BRANCH  34  35
ATOM     35  O   UNL     1     -21.128   2.360 -25.114  0.00  0.00    +0.000 OA
BRANCH  35  36
ATOM     36  C   UNL     1     -20.210   3.287 -25.616  0.00  0.00    +0.000 A 
ATOM     37  C   UNL     1     -18.837   3.089 -25.375  0.00  0.00    +0.000 A 
ATOM     38  C   UNL     1     -20.638   4.393 -26.384  0.00  0.00    +0.000 A 
ATOM     39  C   UNL     1     -17.903   4.010 -25.872  0.00  0.00    +0.000 A 
ATOM     40  C   UNL     1     -19.688   5.316 -26.852  0.00  0.00    +0.000 A 
ATOM     41  C   UNL     1     -18.375   1.886 -24.606  0.00  0.00    +0.000 C 
ATOM     42  C   UNL     1     -22.092   4.619 -26.695  0.00  0.00    +0.000 C 
ATOM     43  C   UNL     1     -18.330   5.123 -26.597  0.00  0.00    +0.000 A 
ENDBRANCH  35  36
ENDBRANCH  34  35
ENDBRANCH  32  34
ENDBRANCH  29  31
BRANCH  29  44
ATOM     44  C   UNL     1     -19.394   6.483 -22.752  0.00  0.00    +0.000 C 
BRANCH  44  45
ATOM     45  C   UNL     1     -17.995   5.919 -22.766  0.00  0.00    +0.000 A 
ATOM     46  C   UNL     1     -17.723   4.676 -22.169  0.00  0.00    +0.000 A 
ATOM     47  C   UNL     1     -16.940   6.655 -23.333  0.00  0.00    +0.000 A 
ATOM     48  C   UNL     1     -16.420   4.171 -22.160  0.00  0.00    +0.000 A 
ATOM     49  C   UNL     1     -15.637   6.150 -23.310  0.00  0.00    +0.000 A 
ATOM     50  C   UNL     1     -15.378   4.906 -22.727  0.00  0.00    +0.000 A 
ENDBRANCH  44  45
ENDBRANCH  29  44
ENDBRANCH  26  29
ENDBRANCH   1  26
TORSDOF 16
ENDMDL
MODEL 5
REMARK VINA RESULT:    -6.961      3.259      5.890
REMARK INTER + INTRA:         -17.038
REMARK INTER:                 -13.375
REMARK INTRA:                  -3.663
REMARK UNBOUND:                -3.770
REMARK  Name = 92727
REMARK  20 active torsions:
REMARK  status: ('A' for Active; 'I' for Inactive)
REMARK    1  A    between atoms: O_1  and  C_13
REMARK    2  A    between atoms: O_5  and  C_32
REMARK    3  A    between atoms: O_5  and  C_39
REMARK    4  A    between atoms: N_6  and  C_11
REMARK    5  A    between atoms: N_7  and  C_10
REMARK    6  A    between atoms: N_8  and  C_15
REMARK    7  A    between atoms: C_10  and  C_12
REMARK    8  A    between atoms: C_10  and  C_16
REMARK    9  A    between atoms: C_11  and  C_14
REMARK   10  A    between atoms: C_11  and  C_17
REMARK   11  A    between atoms: C_12  and  C_13
REMARK   12  A    between atoms: C_13  and  C_15
REMARK   13  A    between atoms: C_14  and  C_22
REMARK   14  A    between atoms: C_14  and  C_23
REMARK   15  A    between atoms: C_15  and  C_20
REMARK   16  A    between atoms: C_16  and  C_25
REMARK   17  A    between atoms: C_20  and  C_26
REMARK   18  A    between atoms: C_27  and  C_32
REMARK   19  A    between atoms: C_40  and  C_44
REMARK   20  A    between atoms: C_41  and  C_45
REMARK                            x       y       z     vdW  Elec       q    Type
REMARK                         _______ _______ _______ _____ _____    ______ ____
ROOT
ATOM      1  C   UNL     1     -21.084   5.557 -21.740  0.00  0.00    +0.000 C 
ENDROOT
BRANCH   1   2
ATOM      2  C   UNL     1     -21.184   4.382 -22.738  0.00  0.00    +0.000 C 
BRANCH   2   4
ATOM      3  O   UNL     1     -22.894   4.548 -25.029  0.00  0.00    +0.000 OA
ATOM      4  N   UNL     1     -20.779   4.821 -24.079  0.00  0.00    +0.000 N 
ATOM      5  C   UNL     1     -21.707   4.949 -25.169  0.00  0.00    +0.000 C 
ATOM      6  H   UNL     1     -19.832   5.037 -24.237  0.00  0.00    +0.000 HD
BRANCH   5   7
ATOM      7  C   UNL     1     -21.293   5.681 -26.429  0.00  0.00    +0.000 C 
BRANCH   7   9
ATOM      8  O   UNL     1     -21.122   8.507 -25.960  0.00  0.00    +0.000 OA
ATOM      9  N   UNL     1     -20.032   6.438 -26.233  0.00  0.00    +0.000 N 
ATOM     10  N   UNL     1     -18.895   8.441 -25.283  0.00  0.00    +0.000 N 
ATOM     11  C   UNL     1     -18.710   5.806 -26.378  0.00  0.00    +0.000 C 
ATOM     12  C   UNL     1     -17.781   6.232 -25.238  0.00  0.00    +0.000 C 
ATOM     13  C   UNL     1     -20.066   7.828 -25.840  0.00  0.00    +0.000 C 
ATOM     14  C   UNL     1     -17.605   7.755 -25.237  0.00  0.00    +0.000 C 
ATOM     15  H   UNL     1     -18.961   9.355 -24.920  0.00  0.00    +0.000 HD
ENDBRANCH   7   9
BRANCH   7  16
ATOM     16  C   UNL     1     -21.265   4.787 -27.707  0.00  0.00    +0.000 C 
ATOM     17  C   UNL     1     -22.530   4.866 -28.579  0.00  0.00    +0.000 C 
ATOM     18  C   UNL     1     -20.966   3.324 -27.350  0.00  0.00    +0.000 C 
ENDBRANCH   7  16
ENDBRANCH   5   7
ENDBRANCH   2   4
BRANCH   2  19
ATOM     19  C   UNL     1     -20.293   3.213 -22.274  0.00  0.00    +0.000 C 
BRANCH  19  20
ATOM     20  C   UNL     1     -18.853   3.417 -22.670  0.00  0.00    +0.000 A 
ATOM     21  C   UNL     1     -18.030   4.291 -21.938  0.00  0.00    +0.000 A 
ATOM     22  C   UNL     1     -18.304   2.696 -23.743  0.00  0.00    +0.000 A 
ATOM     23  C   UNL     1     -16.677   4.425 -22.266  0.00  0.00    +0.000 A 
ATOM     24  C   UNL     1     -16.951   2.830 -24.067  0.00  0.00    +0.000 A 
ATOM     25  C   UNL     1     -16.138   3.692 -23.328  0.00  0.00    +0.000 A 
ENDBRANCH  19  20
ENDBRANCH   2  19
ENDBRANCH   1   2
BRANCH   1  26
ATOM     26  C   UNL     1     -20.995   6.934 -22.437  0.00  0.00    +0.000 C 
BRANCH  26  27
ATOM     27  O   UNL     1     -19.907   7.653 -21.913  0.00  0.00    +0.000 OA
ATOM     28  H   UNL     1     -19.168   7.625 -22.540  0.00  0.00    +0.000 HD
ENDBRANCH  26  27
BRANCH  26  29
ATOM     29  C   UNL     1     -22.288   7.779 -22.297  0.00  0.00    +0.000 C 
BRANCH  29  31
ATOM     30  O   UNL     1     -23.493  10.347 -21.841  0.00  0.00    +0.000 OA
ATOM     31  N   UNL     1     -22.271   8.910 -23.234  0.00  0.00    +0.000 N 
ATOM     32  C   UNL     1     -22.933  10.154 -22.957  0.00  0.00    +0.000 C 
ATOM     33  H   UNL     1     -21.786   8.812 -24.085  0.00  0.00    +0.000 HD
BRANCH  32  34
ATOM     34  C   UNL     1     -23.012  11.220 -24.001  0.00  0.00    +0.000 C 
BRANCH  34  35
ATOM     35  O   UNL     1     -23.504  10.650 -25.208  0.00  0.00    +0.000 OA
BRANCH  35  36
ATOM     36  C   UNL     1     -24.728  11.031 -25.766  0.00  0.00    +0.000 A 
ATOM     37  C   UNL     1     -24.799  12.229 -26.504  0.00  0.00    +0.000 A 
ATOM     38  C   UNL     1     -25.875  10.218 -25.628  0.00  0.00    +0.000 A 
ATOM     39  C   UNL     1     -26.020  12.625 -27.070  0.00  0.00    +0.000 A 
ATOM     40  C   UNL     1     -27.092  10.646 -26.184  0.00  0.00    +0.000 A 
ATOM     41  C   UNL     1     -23.569  13.066 -26.697  0.00  0.00    +0.000 C 
ATOM     42  C   UNL     1     -25.831   8.915 -24.881  0.00  0.00    +0.000 C 
ATOM     43  C   UNL     1     -27.161  11.842 -26.901  0.00  0.00    +0.000 A 
ENDBRANCH  35  36
ENDBRANCH  34  35
ENDBRANCH  32  34
ENDBRANCH  29  31
BRANCH  29  44
ATOM     44  C   UNL     1     -23.578   6.952 -22.482  0.00  0.00    +0.000 C 
BRANCH  44  45
ATOM     45  C   UNL     1     -24.563   7.227 -21.374  0.00  0.00    +0.000 A 
ATOM     46  C   UNL     1     -24.111   7.481 -20.068  0.00  0.00    +0.000 A 
ATOM     47  C   UNL     1     -25.945   7.183 -21.627  0.00  0.00    +0.000 A 
ATOM     48  C   UNL     1     -25.029   7.708 -19.038  0.00  0.00    +0.000 A 
ATOM     49  C   UNL     1     -26.858   7.398 -20.590  0.00  0.00    +0.000 A 
ATOM     50  C   UNL     1     -26.399   7.664 -19.297  0.00  0.00    +0.000 A 
ENDBRANCH  44  45
ENDBRANCH  29  44
ENDBRANCH  26  29
ENDBRANCH   1  26
TORSDOF 16
ENDMDL
MODEL 6
REMARK VINA RESULT:    -6.945      3.784      7.978
REMARK INTER + INTRA:         -17.008
REMARK INTER:                 -12.920
REMARK INTRA:                  -4.088
REMARK UNBOUND:                -3.770
REMARK  Name = 92727
REMARK  20 active torsions:
REMARK  status: ('A' for Active; 'I' for Inactive)
REMARK    1  A    between atoms: O_1  and  C_13
REMARK    2  A    between atoms: O_5  and  C_32
REMARK    3  A    between atoms: O_5  and  C_39
REMARK    4  A    between atoms: N_6  and  C_11
REMARK    5  A    between atoms: N_7  and  C_10
REMARK    6  A    between atoms: N_8  and  C_15
REMARK    7  A    between atoms: C_10  and  C_12
REMARK    8  A    between atoms: C_10  and  C_16
REMARK    9  A    between atoms: C_11  and  C_14
REMARK   10  A    between atoms: C_11  and  C_17
REMARK   11  A    between atoms: C_12  and  C_13
REMARK   12  A    between atoms: C_13  and  C_15
REMARK   13  A    between atoms: C_14  and  C_22
REMARK   14  A    between atoms: C_14  and  C_23
REMARK   15  A    between atoms: C_15  and  C_20
REMARK   16  A    between atoms: C_16  and  C_25
REMARK   17  A    between atoms: C_20  and  C_26
REMARK   18  A    between atoms: C_27  and  C_32
REMARK   19  A    between atoms: C_40  and  C_44
REMARK   20  A    between atoms: C_41  and  C_45
REMARK                            x       y       z     vdW  Elec       q    Type
REMARK                         _______ _______ _______ _____ _____    ______ ____
ROOT
ATOM      1  C   UNL     1     -21.767   2.936 -23.196  0.00  0.00    +0.000 C 
ENDROOT
BRANCH   1   2
ATOM      2  C   UNL     1     -22.851   3.782 -23.899  0.00  0.00    +0.000 C 
BRANCH   2   4
ATOM      3  O   UNL     1     -23.591   6.132 -25.360  0.00  0.00    +0.000 OA
ATOM      4  N   UNL     1     -22.432   4.106 -25.267  0.00  0.00    +0.000 N 
ATOM      5  C   UNL     1     -22.783   5.339 -25.917  0.00  0.00    +0.000 C 
ATOM      6  H   UNL     1     -21.888   3.451 -25.761  0.00  0.00    +0.000 HD
BRANCH   5   7
ATOM      7  C   UNL     1     -22.083   5.742 -27.198  0.00  0.00    +0.000 C 
BRANCH   7   9
ATOM      8  O   UNL     1     -19.914   7.223 -26.044  0.00  0.00    +0.000 OA
ATOM      9  N   UNL     1     -20.662   5.315 -27.203  0.00  0.00    +0.000 N 
ATOM     10  N   UNL     1     -18.413   5.444 -26.139  0.00  0.00    +0.000 N 
ATOM     11  C   UNL     1     -20.209   4.112 -27.921  0.00  0.00    +0.000 C 
ATOM     12  C   UNL     1     -19.241   3.301 -27.055  0.00  0.00    +0.000 C 
ATOM     13  C   UNL     1     -19.674   6.053 -26.450  0.00  0.00    +0.000 C 
ATOM     14  C   UNL     1     -18.018   4.149 -26.687  0.00  0.00    +0.000 C 
ATOM     15  H   UNL     1     -17.792   5.915 -25.535  0.00  0.00    +0.000 HD
ENDBRANCH   7   9
BRANCH   7  16
ATOM     16  C   UNL     1     -22.840   5.324 -28.497  0.00  0.00    +0.000 C 
ATOM     17  C   UNL     1     -23.518   6.481 -29.250  0.00  0.00    +0.000 C 
ATOM     18  C   UNL     1     -23.863   4.217 -28.208  0.00  0.00    +0.000 C 
ENDBRANCH   7  16
ENDBRANCH   5   7
ENDBRANCH   2   4
BRANCH   2  19
ATOM     19  C   UNL     1     -24.189   3.017 -23.924  0.00  0.00    +0.000 C 
BRANCH  19  20
ATOM     20  C   UNL     1     -25.121   3.483 -22.834  0.00  0.00    +0.000 A 
ATOM     21  C   UNL     1     -25.290   4.855 -22.581  0.00  0.00    +0.000 A 
ATOM     22  C   UNL     1     -25.868   2.552 -22.095  0.00  0.00    +0.000 A 
ATOM     23  C   UNL     1     -26.206   5.286 -21.617  0.00  0.00    +0.000 A 
ATOM     24  C   UNL     1     -26.785   2.985 -21.133  0.00  0.00    +0.000 A 
ATOM     25  C   UNL     1     -26.956   4.351 -20.896  0.00  0.00    +0.000 A 
ENDBRANCH  19  20
ENDBRANCH   2  19
ENDBRANCH   1   2
BRANCH   1  26
ATOM     26  C   UNL     1     -20.389   3.026 -23.891  0.00  0.00    +0.000 C 
BRANCH  26  27
ATOM     27  O   UNL     1     -19.771   1.764 -23.867  0.00  0.00    +0.000 OA
ATOM     28  H   UNL     1     -19.511   1.547 -22.958  0.00  0.00    +0.000 HD
ENDBRANCH  26  27
BRANCH  26  29
ATOM     29  C   UNL     1     -19.443   4.075 -23.249  0.00  0.00    +0.000 C 
BRANCH  29  31
ATOM     30  O   UNL     1     -18.600   6.819 -23.140  0.00  0.00    +0.000 OA
ATOM     31  N   UNL     1     -20.214   5.184 -22.672  0.00  0.00    +0.000 N 
ATOM     32  C   UNL     1     -19.711   6.527 -22.613  0.00  0.00    +0.000 C 
ATOM     33  H   UNL     1     -21.112   4.998 -22.314  0.00  0.00    +0.000 HD
BRANCH  32  34
ATOM     34  C   UNL     1     -20.470   7.589 -21.887  0.00  0.00    +0.000 C 
BRANCH  34  35
ATOM     35  O   UNL     1     -21.831   7.551 -22.299  0.00  0.00    +0.000 OA
BRANCH  35  36
ATOM     36  C   UNL     1     -22.886   7.763 -21.407  0.00  0.00    +0.000 A 
ATOM     37  C   UNL     1     -23.777   8.827 -21.643  0.00  0.00    +0.000 A 
ATOM     38  C   UNL     1     -23.086   6.909 -20.299  0.00  0.00    +0.000 A 
ATOM     39  C   UNL     1     -24.840   9.054 -20.758  0.00  0.00    +0.000 A 
ATOM     40  C   UNL     1     -24.144   7.168 -19.412  0.00  0.00    +0.000 A 
ATOM     41  C   UNL     1     -23.598   9.702 -22.849  0.00  0.00    +0.000 C 
ATOM     42  C   UNL     1     -22.179   5.739 -20.034  0.00  0.00    +0.000 C 
ATOM     43  C   UNL     1     -25.014   8.234 -19.642  0.00  0.00    +0.000 A 
ENDBRANCH  35  36
ENDBRANCH  34  35
ENDBRANCH  32  34
ENDBRANCH  29  31
BRANCH  29  44
ATOM     44  C   UNL     1     -18.499   3.472 -22.187  0.00  0.00    +0.000 C 
BRANCH  44  45
ATOM     45  C   UNL     1     -17.055   3.638 -22.588  0.00  0.00    +0.000 A 
ATOM     46  C   UNL     1     -16.248   4.602 -21.960  0.00  0.00    +0.000 A 
ATOM     47  C   UNL     1     -16.515   2.863 -23.630  0.00  0.00    +0.000 A 
ATOM     48  C   UNL     1     -14.918   4.771 -22.354  0.00  0.00    +0.000 A 
ATOM     49  C   UNL     1     -15.188   3.046 -24.028  0.00  0.00    +0.000 A 
ATOM     50  C   UNL     1     -14.388   3.997 -23.387  0.00  0.00    +0.000 A 
ENDBRANCH  44  45
ENDBRANCH  29  44
ENDBRANCH  26  29
ENDBRANCH   1  26
TORSDOF 16
ENDMDL
MODEL 7
REMARK VINA RESULT:    -6.923      5.224      8.330
REMARK INTER + INTRA:         -16.966
REMARK INTER:                 -13.315
REMARK INTRA:                  -3.651
REMARK UNBOUND:                -3.770
REMARK  Name = 92727
REMARK  20 active torsions:
REMARK  status: ('A' for Active; 'I' for Inactive)
REMARK    1  A    between atoms: O_1  and  C_13
REMARK    2  A    between atoms: O_5  and  C_32
REMARK    3  A    between atoms: O_5  and  C_39
REMARK    4  A    between atoms: N_6  and  C_11
REMARK    5  A    between atoms: N_7  and  C_10
REMARK    6  A    between atoms: N_8  and  C_15
REMARK    7  A    between atoms: C_10  and  C_12
REMARK    8  A    between atoms: C_10  and  C_16
REMARK    9  A    between atoms: C_11  and  C_14
REMARK   10  A    between atoms: C_11  and  C_17
REMARK   11  A    between atoms: C_12  and  C_13
REMARK   12  A    between atoms: C_13  and  C_15
REMARK   13  A    between atoms: C_14  and  C_22
REMARK   14  A    between atoms: C_14  and  C_23
REMARK   15  A    between atoms: C_15  and  C_20
REMARK   16  A    between atoms: C_16  and  C_25
REMARK   17  A    between atoms: C_20  and  C_26
REMARK   18  A    between atoms: C_27  and  C_32
REMARK   19  A    between atoms: C_40  and  C_44
REMARK   20  A    between atoms: C_41  and  C_45
REMARK                            x       y       z     vdW  Elec       q    Type
REMARK                         _______ _______ _______ _____ _____    ______ ____
ROOT
ATOM      1  C   UNL     1     -21.471   4.450 -27.993  0.00  0.00    +0.000 C 
ENDROOT
BRANCH   1   2
ATOM      2  C   UNL     1     -20.782   5.025 -26.736  0.00  0.00    +0.000 C 
BRANCH   2   4
ATOM      3  O   UNL     1     -21.669   6.806 -24.676  0.00  0.00    +0.000 OA
ATOM      4  N   UNL     1     -21.522   4.637 -25.529  0.00  0.00    +0.000 N 
ATOM      5  C   UNL     1     -22.000   5.593 -24.569  0.00  0.00    +0.000 C 
ATOM      6  H   UNL     1     -21.698   3.682 -25.372  0.00  0.00    +0.000 HD
BRANCH   5   7
ATOM      7  C   UNL     1     -23.000   5.167 -23.515  0.00  0.00    +0.000 C 
BRANCH   7   9
ATOM      8  O   UNL     1     -22.412   2.985 -21.747  0.00  0.00    +0.000 OA
ATOM      9  N   UNL     1     -22.445   5.306 -22.145  0.00  0.00    +0.000 N 
ATOM     10  N   UNL     1     -21.158   4.282 -20.274  0.00  0.00    +0.000 N 
ATOM     11  C   UNL     1     -22.247   6.619 -21.511  0.00  0.00    +0.000 C 
ATOM     12  C   UNL     1     -20.885   6.681 -20.815  0.00  0.00    +0.000 C 
ATOM     13  C   UNL     1     -22.031   4.138 -21.403  0.00  0.00    +0.000 C 
ATOM     14  C   UNL     1     -20.787   5.591 -19.741  0.00  0.00    +0.000 C 
ATOM     15  H   UNL     1     -20.798   3.473 -19.843  0.00  0.00    +0.000 HD
ENDBRANCH   7   9
BRANCH   7  16
ATOM     16  C   UNL     1     -24.405   5.831 -23.664  0.00  0.00    +0.000 C 
ATOM     17  C   UNL     1     -25.427   5.428 -22.587  0.00  0.00    +0.000 C 
ATOM     18  C   UNL     1     -24.989   5.578 -25.061  0.00  0.00    +0.000 C 
ENDBRANCH   7  16
ENDBRANCH   5   7
ENDBRANCH   2   4
BRANCH   2  19
ATOM     19  C   UNL     1     -19.328   4.518 -26.649  0.00  0.00    +0.000 C 
BRANCH  19  20
ATOM     20  C   UNL     1     -18.458   5.450 -25.844  0.00  0.00    +0.000 A 
ATOM     21  C   UNL     1     -18.271   6.781 -26.254  0.00  0.00    +0.000 A 
ATOM     22  C   UNL     1     -17.866   5.010 -24.649  0.00  0.00    +0.000 A 
ATOM     23  C   UNL     1     -17.519   7.661 -25.469  0.00  0.00    +0.000 A 
ATOM     24  C   UNL     1     -17.118   5.893 -23.864  0.00  0.00    +0.000 A 
ATOM     25  C   UNL     1     -16.946   7.217 -24.273  0.00  0.00    +0.000 A 
ENDBRANCH  19  20
ENDBRANCH   2  19
ENDBRANCH   1   2
BRANCH   1  26
ATOM     26  C   UNL     1     -23.014   4.511 -27.913  0.00  0.00    +0.000 C 
BRANCH  26  27
ATOM     27  O   UNL     1     -23.502   3.302 -27.386  0.00  0.00    +0.000 OA
ATOM     28  H   UNL     1     -24.415   3.426 -27.082  0.00  0.00    +0.000 HD
ENDBRANCH  26  27
BRANCH  26  29
ATOM     29  C   UNL     1     -23.691   4.786 -29.281  0.00  0.00    +0.000 C 
BRANCH  29  31
ATOM     30  O   UNL     1     -24.991   3.132 -31.238  0.00  0.00    +0.000 OA
ATOM     31  N   UNL     1     -25.101   4.376 -29.253  0.00  0.00    +0.000 N 
ATOM     32  C   UNL     1     -25.696   3.582 -30.290  0.00  0.00    +0.000 C 
ATOM     33  H   UNL     1     -25.660   4.657 -28.493  0.00  0.00    +0.000 HD
BRANCH  32  34
ATOM     34  C   UNL     1     -27.166   3.314 -30.292  0.00  0.00    +0.000 C 
BRANCH  34  35
ATOM     35  O   UNL     1     -27.850   4.489 -29.872  0.00  0.00    +0.000 OA
BRANCH  35  36
ATOM     36  C   UNL     1     -28.739   5.172 -30.707  0.00  0.00    +0.000 A 
ATOM     37  C   UNL     1     -30.101   4.815 -30.693  0.00  0.00    +0.000 A 
ATOM     38  C   UNL     1     -28.296   6.229 -31.533  0.00  0.00    +0.000 A 
ATOM     39  C   UNL     1     -31.006   5.490 -31.525  0.00  0.00    +0.000 A 
ATOM     40  C   UNL     1     -29.215   6.876 -32.376  0.00  0.00    +0.000 A 
ATOM     41  C   UNL     1     -30.584   3.729 -29.777  0.00  0.00    +0.000 C 
ATOM     42  C   UNL     1     -26.857   6.665 -31.549  0.00  0.00    +0.000 C 
ATOM     43  C   UNL     1     -30.561   6.508 -32.369  0.00  0.00    +0.000 A 
ENDBRANCH  35  36
ENDBRANCH  34  35
ENDBRANCH  32  34
ENDBRANCH  29  31
BRANCH  29  44
ATOM     44  C   UNL     1     -23.572   6.258 -29.732  0.00  0.00    +0.000 C 
BRANCH  44  45
ATOM     45  C   UNL     1     -23.990   7.199 -28.630  0.00  0.00    +0.000 A 
ATOM     46  C   UNL     1     -25.349   7.384 -28.330  0.00  0.00    +0.000 A 
ATOM     47  C   UNL     1     -23.023   7.938 -27.925  0.00  0.00    +0.000 A 
ATOM     48  C   UNL     1     -25.733   8.278 -27.326  0.00  0.00    +0.000 A 
ATOM     49  C   UNL     1     -23.413   8.840 -26.932  0.00  0.00    +0.000 A 
ATOM     50  C   UNL     1     -24.768   9.007 -26.629  0.00  0.00    +0.000 A 
ENDBRANCH  44  45
ENDBRANCH  29  44
ENDBRANCH  26  29
ENDBRANCH   1  26
TORSDOF 16
ENDMDL
MODEL 8
REMARK VINA RESULT:    -6.908      3.477      9.038
REMARK INTER + INTRA:         -16.937
REMARK INTER:                 -11.854
REMARK INTRA:                  -5.083
REMARK UNBOUND:                -3.770
REMARK  Name = 92727
REMARK  20 active torsions:
REMARK  status: ('A' for Active; 'I' for Inactive)
REMARK    1  A    between atoms: O_1  and  C_13
REMARK    2  A    between atoms: O_5  and  C_32
REMARK    3  A    between atoms: O_5  and  C_39
REMARK    4  A    between atoms: N_6  and  C_11
REMARK    5  A    between atoms: N_7  and  C_10
REMARK    6  A    between atoms: N_8  and  C_15
REMARK    7  A    between atoms: C_10  and  C_12
REMARK    8  A    between atoms: C_10  and  C_16
REMARK    9  A    between atoms: C_11  and  C_14
REMARK   10  A    between atoms: C_11  and  C_17
REMARK   11  A    between atoms: C_12  and  C_13
REMARK   12  A    between atoms: C_13  and  C_15
REMARK   13  A    between atoms: C_14  and  C_22
REMARK   14  A    between atoms: C_14  and  C_23
REMARK   15  A    between atoms: C_15  and  C_20
REMARK   16  A    between atoms: C_16  and  C_25
REMARK   17  A    between atoms: C_20  and  C_26
REMARK   18  A    between atoms: C_27  and  C_32
REMARK   19  A    between atoms: C_40  and  C_44
REMARK   20  A    between atoms: C_41  and  C_45
REMARK                            x       y       z     vdW  Elec       q    Type
REMARK                         _______ _______ _______ _____ _____    ______ ____
ROOT
ATOM      1  C   UNL     1     -22.154   6.284 -20.727  0.00  0.00    +0.000 C 
ENDROOT
BRANCH   1   2
ATOM      2  C   UNL     1     -23.076   7.522 -20.787  0.00  0.00    +0.000 C 
BRANCH   2   4
ATOM      3  O   UNL     1     -23.740  10.048 -21.961  0.00  0.00    +0.000 OA
ATOM      4  N   UNL     1     -23.556   7.729 -22.159  0.00  0.00    +0.000 N 
ATOM      5  C   UNL     1     -23.804   9.033 -22.708  0.00  0.00    +0.000 C 
ATOM      6  H   UNL     1     -23.716   6.940 -22.726  0.00  0.00    +0.000 HD
BRANCH   5   7
ATOM      7  C   UNL     1     -24.008   9.197 -24.199  0.00  0.00    +0.000 C 
BRANCH   7   9
ATOM      8  O   UNL     1     -21.598   7.652 -24.395  0.00  0.00    +0.000 OA
ATOM      9  N   UNL     1     -22.764   9.641 -24.876  0.00  0.00    +0.000 N 
ATOM     10  N   UNL     1     -20.646   9.013 -26.029  0.00  0.00    +0.000 N 
ATOM     11  C   UNL     1     -22.614  10.998 -25.426  0.00  0.00    +0.000 C 
ATOM     12  C   UNL     1     -21.971  10.949 -26.814  0.00  0.00    +0.000 C 
ATOM     13  C   UNL     1     -21.665   8.722 -25.061  0.00  0.00    +0.000 C 
ATOM     14  C   UNL     1     -20.590  10.289 -26.738  0.00  0.00    +0.000 C 
ATOM     15  H   UNL     1     -19.962   8.330 -26.221  0.00  0.00    +0.000 HD
ENDBRANCH   7   9
BRANCH   7  16
ATOM     16  C   UNL     1     -24.663   7.962 -24.893  0.00  0.00    +0.000 C 
ATOM     17  C   UNL     1     -24.712   8.036 -26.429  0.00  0.00    +0.000 C 
ATOM     18  C   UNL     1     -26.068   7.697 -24.336  0.00  0.00    +0.000 C 
ENDBRANCH   7  16
ENDBRANCH   5   7
ENDBRANCH   2   4
BRANCH   2  19
ATOM     19  C   UNL     1     -24.272   7.340 -19.831  0.00  0.00    +0.000 C 
BRANCH  19  20
ATOM     20  C   UNL     1     -25.470   6.761 -20.539  0.00  0.00    +0.000 A 
ATOM     21  C   UNL     1     -25.393   5.498 -21.151  0.00  0.00    +0.000 A 
ATOM     22  C   UNL     1     -26.691   7.455 -20.549  0.00  0.00    +0.000 A 
ATOM     23  C   UNL     1     -26.526   4.934 -21.747  0.00  0.00    +0.000 A 
ATOM     24  C   UNL     1     -27.822   6.888 -21.142  0.00  0.00    +0.000 A 
ATOM     25  C   UNL     1     -27.741   5.627 -21.739  0.00  0.00    +0.000 A 
ENDBRANCH  19  20
ENDBRANCH   2  19
ENDBRANCH   1   2
BRANCH   1  26
ATOM     26  C   UNL     1     -20.681   6.614 -21.064  0.00  0.00    +0.000 C 
BRANCH  26  27
ATOM     27  O   UNL     1     -20.603   7.917 -21.586  0.00  0.00    +0.000 OA
ATOM     28  H   UNL     1     -19.920   8.416 -21.112  0.00  0.00    +0.000 HD
ENDBRANCH  26  27
BRANCH  26  29
ATOM     29  C   UNL     1     -20.041   5.619 -22.067  0.00  0.00    +0.000 C 
BRANCH  29  31
ATOM     30  O   UNL     1     -20.722   2.888 -22.643  0.00  0.00    +0.000 OA
ATOM     31  N   UNL     1     -21.029   5.175 -23.059  0.00  0.00    +0.000 N 
ATOM     32  C   UNL     1     -21.288   3.789 -23.325  0.00  0.00    +0.000 C 
ATOM     33  H   UNL     1     -21.534   5.855 -23.560  0.00  0.00    +0.000 HD
BRANCH  32  34
ATOM     34  C   UNL     1     -22.194   3.388 -24.444  0.00  0.00    +0.000 C 
BRANCH  34  35
ATOM     35  O   UNL     1     -22.833   4.548 -24.960  0.00  0.00    +0.000 OA
BRANCH  35  36
ATOM     36  C   UNL     1     -23.154   4.683 -26.314  0.00  0.00    +0.000 A 
ATOM     37  C   UNL     1     -24.480   4.453 -26.729  0.00  0.00    +0.000 A 
ATOM     38  C   UNL     1     -22.178   5.076 -27.258  0.00  0.00    +0.000 A 
ATOM     39  C   UNL     1     -24.817   4.583 -28.084  0.00  0.00    +0.000 A 
ATOM     40  C   UNL     1     -22.533   5.177 -28.613  0.00  0.00    +0.000 A 
ATOM     41  C   UNL     1     -25.529   4.089 -25.720  0.00  0.00    +0.000 C 
ATOM     42  C   UNL     1     -20.761   5.367 -26.849  0.00  0.00    +0.000 C 
ATOM     43  C   UNL     1     -23.845   4.933 -29.021  0.00  0.00    +0.000 A 
ENDBRANCH  35  36
ENDBRANCH  34  35
ENDBRANCH  32  34
ENDBRANCH  29  31
BRANCH  29  44
ATOM     44  C   UNL     1     -18.793   6.188 -22.774  0.00  0.00    +0.000 C 
BRANCH  44  45
ATOM     45  C   UNL     1     -17.836   5.086 -23.157  0.00  0.00    +0.000 A 
ATOM     46  C   UNL     1     -16.849   4.656 -22.256  0.00  0.00    +0.000 A 
ATOM     47  C   UNL     1     -17.893   4.513 -24.440  0.00  0.00    +0.000 A 
ATOM     48  C   UNL     1     -15.947   3.654 -22.625  0.00  0.00    +0.000 A 
ATOM     49  C   UNL     1     -16.980   3.521 -24.808  0.00  0.00    +0.000 A 
ATOM     50  C   UNL     1     -16.010   3.088 -23.899  0.00  0.00    +0.000 A 
ENDBRANCH  44  45
ENDBRANCH  29  44
ENDBRANCH  26  29
ENDBRANCH   1  26
TORSDOF 16
ENDMDL
MODEL 9
REMARK VINA RESULT:    -6.836      3.382      8.806
REMARK INTER + INTRA:         -16.801
REMARK INTER:                 -12.620
REMARK INTRA:                  -4.181
REMARK UNBOUND:                -3.770
REMARK  Name = 92727
REMARK  20 active torsions:
REMARK  status: ('A' for Active; 'I' for Inactive)
REMARK    1  A    between atoms: O_1  and  C_13
REMARK    2  A    between atoms: O_5  and  C_32
REMARK    3  A    between atoms: O_5  and  C_39
REMARK    4  A    between atoms: N_6  and  C_11
REMARK    5  A    between atoms: N_7  and  C_10
REMARK    6  A    between atoms: N_8  and  C_15
REMARK    7  A    between atoms: C_10  and  C_12
REMARK    8  A    between atoms: C_10  and  C_16
REMARK    9  A    between atoms: C_11  and  C_14
REMARK   10  A    between atoms: C_11  and  C_17
REMARK   11  A    between atoms: C_12  and  C_13
REMARK   12  A    between atoms: C_13  and  C_15
REMARK   13  A    between atoms: C_14  and  C_22
REMARK   14  A    between atoms: C_14  and  C_23
REMARK   15  A    between atoms: C_15  and  C_20
REMARK   16  A    between atoms: C_16  and  C_25
REMARK   17  A    between atoms: C_20  and  C_26
REMARK   18  A    between atoms: C_27  and  C_32
REMARK   19  A    between atoms: C_40  and  C_44
REMARK   20  A    between atoms: C_41  and  C_45
REMARK                            x       y       z     vdW  Elec       q    Type
REMARK                         _______ _______ _______ _____ _____    ______ ____
ROOT
ATOM      1  C   UNL     1     -21.097   8.084 -26.393  0.00  0.00    +0.000 C 
ENDROOT
BRANCH   1   2
ATOM      2  C   UNL     1     -22.292   8.889 -25.837  0.00  0.00    +0.000 C 
BRANCH   2   4
ATOM      3  O   UNL     1     -24.688   8.002 -24.543  0.00  0.00    +0.000 OA
ATOM      4  N   UNL     1     -22.446   8.639 -24.399  0.00  0.00    +0.000 N 
ATOM      5  C   UNL     1     -23.659   8.125 -23.824  0.00  0.00    +0.000 C 
ATOM      6  H   UNL     1     -21.686   8.831 -23.804  0.00  0.00    +0.000 HD
BRANCH   5   7
ATOM      7  C   UNL     1     -23.659   7.612 -22.399  0.00  0.00    +0.000 C 
BRANCH   7   9
ATOM      8  O   UNL     1     -23.463   4.875 -23.237  0.00  0.00    +0.000 OA
ATOM      9  N   UNL     1     -22.501   6.722 -22.138  0.00  0.00    +0.000 N 
ATOM     10  N   UNL     1     -21.177   4.723 -22.815  0.00  0.00    +0.000 N 
ATOM     11  C   UNL     1     -21.364   7.143 -21.303  0.00  0.00    +0.000 C 
ATOM     12  C   UNL     1     -20.039   6.745 -21.958  0.00  0.00    +0.000 C 
ATOM     13  C   UNL     1     -22.433   5.413 -22.745  0.00  0.00    +0.000 C 
ATOM     14  C   UNL     1     -19.976   5.226 -22.152  0.00  0.00    +0.000 C 
ATOM     15  H   UNL     1     -21.123   3.882 -23.325  0.00  0.00    +0.000 HD
ENDBRANCH   7   9
BRANCH   7  16
ATOM     16  C   UNL     1     -23.815   8.728 -21.319  0.00  0.00    +0.000 C 
ATOM     17  C   UNL     1     -24.679   8.338 -20.108  0.00  0.00    +0.000 C 
ATOM     18  C   UNL     1     -24.343  10.028 -21.942  0.00  0.00    +0.000 C 
ENDBRANCH   7  16
ENDBRANCH   5   7
ENDBRANCH   2   4
BRANCH   2  19
ATOM     19  C   UNL     1     -22.082  10.395 -26.091  0.00  0.00    +0.000 C 
BRANCH  19  20
ATOM     20  C   UNL     1     -23.362  11.174 -25.928  0.00  0.00    +0.000 A 
ATOM     21  C   UNL     1     -24.560  10.699 -26.490  0.00  0.00    +0.000 A 
ATOM     22  C   UNL     1     -23.381  12.356 -25.171  0.00  0.00    +0.000 A 
ATOM     23  C   UNL     1     -25.759  11.388 -26.279  0.00  0.00    +0.000 A 
ATOM     24  C   UNL     1     -24.581  13.042 -24.960  0.00  0.00    +0.000 A 
ATOM     25  C   UNL     1     -25.769  12.557 -25.511  0.00  0.00    +0.000 A 
ENDBRANCH  19  20
ENDBRANCH   2  19
ENDBRANCH   1   2
BRANCH   1  26
ATOM     26  C   UNL     1     -20.249   7.422 -25.283  0.00  0.00    +0.000 C 
BRANCH  26  27
ATOM     27  O   UNL     1     -19.139   8.235 -24.997  0.00  0.00    +0.000 OA
ATOM     28  H   UNL     1     -18.325   7.714 -25.082  0.00  0.00    +0.000 HD
ENDBRANCH  26  27
BRANCH  26  29
ATOM     29  C   UNL     1     -19.762   5.995 -25.648  0.00  0.00    +0.000 C 
BRANCH  29  31
ATOM     30  O   UNL     1     -21.479   3.691 -25.662  0.00  0.00    +0.000 OA
ATOM     31  N   UNL     1     -20.494   5.481 -26.813  0.00  0.00    +0.000 N 
ATOM     32  C   UNL     1     -21.302   4.296 -26.757  0.00  0.00    +0.000 C 
ATOM     33  H   UNL     1     -20.428   5.968 -27.666  0.00  0.00    +0.000 HD
BRANCH  32  34
ATOM     34  C   UNL     1     -21.906   3.731 -28.002  0.00  0.00    +0.000 C 
BRANCH  34  35
ATOM     35  O   UNL     1     -23.297   4.028 -28.017  0.00  0.00    +0.000 OA
BRANCH  35  36
ATOM     36  C   UNL     1     -23.990   4.289 -29.202  0.00  0.00    +0.000 A 
ATOM     37  C   UNL     1     -24.639   3.228 -29.862  0.00  0.00    +0.000 A 
ATOM     38  C   UNL     1     -24.075   5.600 -29.723  0.00  0.00    +0.000 A 
ATOM     39  C   UNL     1     -25.339   3.473 -31.053  0.00  0.00    +0.000 A 
ATOM     40  C   UNL     1     -24.761   5.818 -30.929  0.00  0.00    +0.000 A 
ATOM     41  C   UNL     1     -24.596   1.844 -29.282  0.00  0.00    +0.000 C 
ATOM     42  C   UNL     1     -23.429   6.765 -29.028  0.00  0.00    +0.000 C 
ATOM     43  C   UNL     1     -25.389   4.760 -31.587  0.00  0.00    +0.000 A 
ENDBRANCH  35  36
ENDBRANCH  34  35
ENDBRANCH  32  34
ENDBRANCH  29  31
BRANCH  29  44
ATOM     44  C   UNL     1     -18.241   5.917 -25.896  0.00  0.00    +0.000 C 
BRANCH  44  45
ATOM     45  C   UNL     1     -17.544   5.193 -24.771  0.00  0.00    +0.000 A 
ATOM     46  C   UNL     1     -17.695   3.804 -24.618  0.00  0.00    +0.000 A 
ATOM     47  C   UNL     1     -16.777   5.908 -23.835  0.00  0.00    +0.000 A 
ATOM     48  C   UNL     1     -17.070   3.141 -23.558  0.00  0.00    +0.000 A 
ATOM     49  C   UNL     1     -16.165   5.242 -22.770  0.00  0.00    +0.000 A 
ATOM     50  C   UNL     1     -16.309   3.858 -22.634  0.00  0.00    +0.000 A 
ENDBRANCH  44  45
ENDBRANCH  29  44
ENDBRANCH  26  29
ENDBRANCH   1  26
TORSDOF 16
ENDMDL
