MODEL 1
REMARK VINA RESULT:    -6.599      0.000      0.000
REMARK INTER + INTRA:          -9.744
REMARK INTER:                  -9.106
REMARK INTRA:                  -0.638
REMARK UNBOUND:                -0.638
REMARK  Name = 145996610
REMARK  10 active torsions:
REMARK  status: ('A' for Active; 'I' for Inactive)
REMARK    1  A    between atoms: O_2  and  C_11
REMARK    2  A    between atoms: O_3  and  C_12
REMARK    3  A    between atoms: O_4  and  C_15
REMARK    4  A    between atoms: O_4  and  C_18
REMARK    5  A    between atoms: O_7  and  N_10
REMARK    6  A    between atoms: N_8  and  C_14
REMARK    7  A    between atoms: C_13  and  C_15
REMARK    8  A    between atoms: C_18  and  C_20
REMARK    9  A    between atoms: C_20  and  C_22
REMARK   10  A    between atoms: C_20  and  C_23
REMARK                            x       y       z     vdW  Elec       q    Type
REMARK                         _______ _______ _______ _____ _____    ______ ____
ROOT
ATOM      1  O   UNL     1     -21.152   6.248 -20.206  0.00  0.00    +0.000 OA
ATOM      2  C   UNL     1     -21.366   4.171 -21.331  0.00  0.00    +0.000 C 
ATOM      3  C   UNL     1     -22.588   5.015 -21.636  0.00  0.00    +0.000 C 
ATOM      4  C   UNL     1     -20.369   5.213 -20.840  0.00  0.00    +0.000 C 
ATOM      5  C   UNL     1     -22.538   6.058 -20.533  0.00  0.00    +0.000 C 
ENDROOT
BRANCH   5   7
ATOM      6  O   UNL     1     -24.671   7.376 -19.249  0.00  0.00    +0.000 OA
ATOM      7  N   UNL     1     -23.102   7.313 -20.940  0.00  0.00    +0.000 N 
ATOM      8  N   UNL     1     -24.673   9.130 -20.690  0.00  0.00    +0.000 NA
ATOM      9  N   UNL     1     -24.670  10.922 -22.172  0.00  0.00    +0.000 N 
ATOM     10  C   UNL     1     -22.576   7.951 -22.053  0.00  0.00    +0.000 A 
ATOM     11  C   UNL     1     -24.179   7.917 -20.241  0.00  0.00    +0.000 A 
ATOM     12  C   UNL     1     -23.038   9.117 -22.502  0.00  0.00    +0.000 A 
ATOM     13  C   UNL     1     -24.165   9.717 -21.742  0.00  0.00    +0.000 A 
ATOM     14  H   UNL     1     -24.350  11.384 -22.980  0.00  0.00    +0.000 HD
BRANCH   9  15
ATOM     15  O   UNL     1     -25.659  11.415 -21.371  0.00  0.00    +0.000 OA
ATOM     16  H   UNL     1     -26.462  10.884 -21.485  0.00  0.00    +0.000 HD
ENDBRANCH   9  15
ENDBRANCH   5   7
BRANCH   2  17
ATOM     17  O   UNL     1     -21.638   3.245 -20.280  0.00  0.00    +0.000 OA
ATOM     18  H   UNL     1     -20.805   2.983 -19.856  0.00  0.00    +0.000 HD
ENDBRANCH   2  17
BRANCH   3  19
ATOM     19  O   UNL     1     -23.793   4.280 -21.614  0.00  0.00    +0.000 OA
ATOM     20  H   UNL     1     -24.220   4.333 -22.484  0.00  0.00    +0.000 HD
ENDBRANCH   3  19
BRANCH   4  21
ATOM     21  C   UNL     1     -19.566   5.852 -21.965  0.00  0.00    +0.000 C 
BRANCH  21  22
ATOM     22  O   UNL     1     -18.644   4.898 -22.463  0.00  0.00    +0.000 OA
BRANCH  22  24
ATOM     23  O   UNL     1     -17.080   6.459 -23.125  0.00  0.00    +0.000 OA
ATOM     24  C   UNL     1     -17.369   5.351 -22.690  0.00  0.00    +0.000 C 
BRANCH  24  25
ATOM     25  C   UNL     1     -16.362   4.281 -22.309  0.00  0.00    +0.000 C 
ATOM     26  C   UNL     1     -16.421   3.110 -23.285  0.00  0.00    +0.000 C 
ATOM     27  C   UNL     1     -14.963   4.884 -22.264  0.00  0.00    +0.000 C 
ENDBRANCH  24  25
ENDBRANCH  22  24
ENDBRANCH  21  22
ENDBRANCH   4  21
TORSDOF 8
ENDMDL
MODEL 2
REMARK VINA RESULT:    -6.505      0.798      1.066
REMARK INTER + INTRA:          -9.615
REMARK INTER:                  -8.906
REMARK INTRA:                  -0.709
REMARK UNBOUND:                -0.638
REMARK  Name = 145996610
REMARK  10 active torsions:
REMARK  status: ('A' for Active; 'I' for Inactive)
REMARK    1  A    between atoms: O_2  and  C_11
REMARK    2  A    between atoms: O_3  and  C_12
REMARK    3  A    between atoms: O_4  and  C_15
REMARK    4  A    between atoms: O_4  and  C_18
REMARK    5  A    between atoms: O_7  and  N_10
REMARK    6  A    between atoms: N_8  and  C_14
REMARK    7  A    between atoms: C_13  and  C_15
REMARK    8  A    between atoms: C_18  and  C_20
REMARK    9  A    between atoms: C_20  and  C_22
REMARK   10  A    between atoms: C_20  and  C_23
REMARK                            x       y       z     vdW  Elec       q    Type
REMARK                         _______ _______ _______ _____ _____    ______ ____
ROOT
ATOM      1  O   UNL     1     -21.122   6.256 -20.243  0.00  0.00    +0.000 OA
ATOM      2  C   UNL     1     -21.356   4.166 -21.341  0.00  0.00    +0.000 C 
ATOM      3  C   UNL     1     -22.577   5.013 -21.645  0.00  0.00    +0.000 C 
ATOM      4  C   UNL     1     -20.349   5.210 -20.871  0.00  0.00    +0.000 C 
ATOM      5  C   UNL     1     -22.512   6.069 -20.556  0.00  0.00    +0.000 C 
ENDROOT
BRANCH   5   7
ATOM      6  O   UNL     1     -24.654   7.394 -19.293  0.00  0.00    +0.000 OA
ATOM      7  N   UNL     1     -23.074   7.321 -20.974  0.00  0.00    +0.000 N 
ATOM      8  N   UNL     1     -24.646   9.139 -20.745  0.00  0.00    +0.000 NA
ATOM      9  N   UNL     1     -24.635  10.923 -22.237  0.00  0.00    +0.000 N 
ATOM     10  C   UNL     1     -22.541   7.953 -22.088  0.00  0.00    +0.000 A 
ATOM     11  C   UNL     1     -24.155   7.929 -20.286  0.00  0.00    +0.000 A 
ATOM     12  C   UNL     1     -23.000   9.116 -22.546  0.00  0.00    +0.000 A 
ATOM     13  C   UNL     1     -24.132   9.720 -21.797  0.00  0.00    +0.000 A 
ATOM     14  H   UNL     1     -24.310  11.380 -23.046  0.00  0.00    +0.000 HD
BRANCH   9  15
ATOM     15  O   UNL     1     -25.628  11.420 -21.445  0.00  0.00    +0.000 OA
ATOM     16  H   UNL     1     -25.911  12.284 -21.784  0.00  0.00    +0.000 HD
ENDBRANCH   9  15
ENDBRANCH   5   7
BRANCH   2  17
ATOM     17  O   UNL     1     -21.623   3.255 -20.275  0.00  0.00    +0.000 OA
ATOM     18  H   UNL     1     -22.538   3.373 -19.971  0.00  0.00    +0.000 HD
ENDBRANCH   2  17
BRANCH   3  19
ATOM     19  O   UNL     1     -23.785   4.284 -21.603  0.00  0.00    +0.000 OA
ATOM     20  H   UNL     1     -23.775   3.602 -22.294  0.00  0.00    +0.000 HD
ENDBRANCH   3  19
BRANCH   4  21
ATOM     21  C   UNL     1     -19.553   5.831 -22.011  0.00  0.00    +0.000 C 
BRANCH  21  22
ATOM     22  O   UNL     1     -18.716   4.836 -22.574  0.00  0.00    +0.000 OA
BRANCH  22  24
ATOM     23  O   UNL     1     -17.911   4.997 -24.729  0.00  0.00    +0.000 OA
ATOM     24  C   UNL     1     -17.835   5.262 -23.537  0.00  0.00    +0.000 C 
BRANCH  24  25
ATOM     25  C   UNL     1     -16.756   6.124 -22.907  0.00  0.00    +0.000 C 
ATOM     26  C   UNL     1     -15.585   5.268 -22.435  0.00  0.00    +0.000 C 
ATOM     27  C   UNL     1     -16.293   7.178 -23.906  0.00  0.00    +0.000 C 
ENDBRANCH  24  25
ENDBRANCH  22  24
ENDBRANCH  21  22
ENDBRANCH   4  21
TORSDOF 8
ENDMDL
MODEL 3
REMARK VINA RESULT:    -5.994     12.922     15.332
REMARK INTER + INTRA:          -8.910
REMARK INTER:                  -8.031
REMARK INTRA:                  -0.879
REMARK UNBOUND:                -0.638
REMARK  Name = 145996610
REMARK  10 active torsions:
REMARK  status: ('A' for Active; 'I' for Inactive)
REMARK    1  A    between atoms: O_2  and  C_11
REMARK    2  A    between atoms: O_3  and  C_12
REMARK    3  A    between atoms: O_4  and  C_15
REMARK    4  A    between atoms: O_4  and  C_18
REMARK    5  A    between atoms: O_7  and  N_10
REMARK    6  A    between atoms: N_8  and  C_14
REMARK    7  A    between atoms: C_13  and  C_15
REMARK    8  A    between atoms: C_18  and  C_20
REMARK    9  A    between atoms: C_20  and  C_22
REMARK   10  A    between atoms: C_20  and  C_23
REMARK                            x       y       z     vdW  Elec       q    Type
REMARK                         _______ _______ _______ _____ _____    ______ ____
ROOT
ATOM      1  O   UNL     1     -27.620  18.792 -18.449  0.00  0.00    +0.000 OA
ATOM      2  C   UNL     1     -26.818  17.628 -20.354  0.00  0.00    +0.000 C 
ATOM      3  C   UNL     1     -26.232  19.027 -20.358  0.00  0.00    +0.000 C 
ATOM      4  C   UNL     1     -27.262  17.469 -18.905  0.00  0.00    +0.000 C 
ATOM      5  C   UNL     1     -27.154  19.762 -19.401  0.00  0.00    +0.000 C 
ENDROOT
BRANCH   5   7
ATOM      6  O   UNL     1     -27.986  22.453 -19.351  0.00  0.00    +0.000 OA
ATOM      7  N   UNL     1     -26.486  20.823 -18.704  0.00  0.00    +0.000 N 
ATOM      8  N   UNL     1     -26.271  23.131 -18.028  0.00  0.00    +0.000 NA
ATOM      9  N   UNL     1     -24.510  23.820 -16.674  0.00  0.00    +0.000 N 
ATOM     10  C   UNL     1     -25.334  20.530 -17.989  0.00  0.00    +0.000 A 
ATOM     11  C   UNL     1     -26.966  22.157 -18.725  0.00  0.00    +0.000 A 
ATOM     12  C   UNL     1     -24.650  21.452 -17.314  0.00  0.00    +0.000 A 
ATOM     13  C   UNL     1     -25.186  22.837 -17.361  0.00  0.00    +0.000 A 
ATOM     14  H   UNL     1     -23.667  23.658 -16.190  0.00  0.00    +0.000 HD
BRANCH   9  15
ATOM     15  O   UNL     1     -25.118  25.040 -16.730  0.00  0.00    +0.000 OA
ATOM     16  H   UNL     1     -26.051  24.926 -16.967  0.00  0.00    +0.000 HD
ENDBRANCH   9  15
ENDBRANCH   5   7
BRANCH   2  17
ATOM     17  O   UNL     1     -27.960  17.555 -21.208  0.00  0.00    +0.000 OA
ATOM     18  H   UNL     1     -28.158  18.438 -21.560  0.00  0.00    +0.000 HD
ENDBRANCH   2  17
BRANCH   3  19
ATOM     19  O   UNL     1     -26.217  19.621 -21.638  0.00  0.00    +0.000 OA
ATOM     20  H   UNL     1     -27.123  19.680 -21.979  0.00  0.00    +0.000 HD
ENDBRANCH   3  19
BRANCH   4  21
ATOM     21  C   UNL     1     -26.161  16.939 -17.996  0.00  0.00    +0.000 C 
BRANCH  21  22
ATOM     22  O   UNL     1     -26.425  17.361 -16.669  0.00  0.00    +0.000 OA
BRANCH  22  24
ATOM     23  O   UNL     1     -26.992  15.219 -16.028  0.00  0.00    +0.000 OA
ATOM     24  C   UNL     1     -27.002  16.429 -15.843  0.00  0.00    +0.000 C 
BRANCH  24  25
ATOM     25  C   UNL     1     -27.647  17.119 -14.654  0.00  0.00    +0.000 C 
ATOM     26  C   UNL     1     -29.153  17.255 -14.857  0.00  0.00    +0.000 C 
ATOM     27  C   UNL     1     -27.336  16.342 -13.380  0.00  0.00    +0.000 C 
ENDBRANCH  24  25
ENDBRANCH  22  24
ENDBRANCH  21  22
ENDBRANCH   4  21
TORSDOF 8
ENDMDL
MODEL 4
REMARK VINA RESULT:    -5.919     11.621     13.893
REMARK INTER + INTRA:          -8.806
REMARK INTER:                  -7.885
REMARK INTRA:                  -0.921
REMARK UNBOUND:                -0.638
REMARK  Name = 145996610
REMARK  10 active torsions:
REMARK  status: ('A' for Active; 'I' for Inactive)
REMARK    1  A    between atoms: O_2  and  C_11
REMARK    2  A    between atoms: O_3  and  C_12
REMARK    3  A    between atoms: O_4  and  C_15
REMARK    4  A    between atoms: O_4  and  C_18
REMARK    5  A    between atoms: O_7  and  N_10
REMARK    6  A    between atoms: N_8  and  C_14
REMARK    7  A    between atoms: C_13  and  C_15
REMARK    8  A    between atoms: C_18  and  C_20
REMARK    9  A    between atoms: C_20  and  C_22
REMARK   10  A    between atoms: C_20  and  C_23
REMARK                            x       y       z     vdW  Elec       q    Type
REMARK                         _______ _______ _______ _____ _____    ______ ____
ROOT
ATOM      1  O   UNL     1     -28.017  19.271 -18.119  0.00  0.00    +0.000 OA
ATOM      2  C   UNL     1     -26.501  19.969 -19.805  0.00  0.00    +0.000 C 
ATOM      3  C   UNL     1     -25.978  18.689 -19.183  0.00  0.00    +0.000 C 
ATOM      4  C   UNL     1     -27.968  19.952 -19.392  0.00  0.00    +0.000 C 
ATOM      5  C   UNL     1     -26.756  18.627 -17.880  0.00  0.00    +0.000 C 
ENDROOT
BRANCH   5   7
ATOM      6  O   UNL     1     -27.130  17.820 -15.206  0.00  0.00    +0.000 OA
ATOM      7  N   UNL     1     -26.989  17.280 -17.445  0.00  0.00    +0.000 N 
ATOM      8  N   UNL     1     -27.390  15.628 -15.731  0.00  0.00    +0.000 NA
ATOM      9  N   UNL     1     -27.655  13.382 -16.275  0.00  0.00    +0.000 N 
ATOM     10  C   UNL     1     -27.038  16.271 -18.396  0.00  0.00    +0.000 A 
ATOM     11  C   UNL     1     -27.169  16.950 -16.078  0.00  0.00    +0.000 A 
ATOM     12  C   UNL     1     -27.248  14.994 -18.084  0.00  0.00    +0.000 A 
ATOM     13  C   UNL     1     -27.433  14.690 -16.640  0.00  0.00    +0.000 A 
ATOM     14  H   UNL     1     -27.656  12.635 -16.917  0.00  0.00    +0.000 HD
BRANCH   9  15
ATOM     15  O   UNL     1     -27.873  13.220 -14.938  0.00  0.00    +0.000 OA
ATOM     16  H   UNL     1     -28.793  13.444 -14.731  0.00  0.00    +0.000 HD
ENDBRANCH   9  15
ENDBRANCH   5   7
BRANCH   2  17
ATOM     17  O   UNL     1     -25.863  21.110 -19.231  0.00  0.00    +0.000 OA
ATOM     18  H   UNL     1     -25.814  21.002 -18.267  0.00  0.00    +0.000 HD
ENDBRANCH   2  17
BRANCH   3  19
ATOM     19  O   UNL     1     -24.584  18.704 -18.967  0.00  0.00    +0.000 OA
ATOM     20  H   UNL     1     -24.143  19.116 -19.727  0.00  0.00    +0.000 HD
ENDBRANCH   3  19
BRANCH   4  21
ATOM     21  C   UNL     1     -28.857  19.193 -20.368  0.00  0.00    +0.000 C 
BRANCH  21  22
ATOM     22  O   UNL     1     -28.173  19.067 -21.602  0.00  0.00    +0.000 OA
BRANCH  22  24
ATOM     23  O   UNL     1     -29.324  17.494 -22.834  0.00  0.00    +0.000 OA
ATOM     24  C   UNL     1     -28.314  17.866 -22.251  0.00  0.00    +0.000 C 
BRANCH  24  25
ATOM     25  C   UNL     1     -27.027  17.068 -22.151  0.00  0.00    +0.000 C 
ATOM     26  C   UNL     1     -27.211  15.668 -22.732  0.00  0.00    +0.000 C 
ATOM     27  C   UNL     1     -25.905  17.811 -22.865  0.00  0.00    +0.000 C 
ENDBRANCH  24  25
ENDBRANCH  22  24
ENDBRANCH  21  22
ENDBRANCH   4  21
TORSDOF 8
ENDMDL
MODEL 5
REMARK VINA RESULT:    -5.865     12.444     14.752
REMARK INTER + INTRA:          -8.731
REMARK INTER:                  -7.949
REMARK INTRA:                  -0.782
REMARK UNBOUND:                -0.638
REMARK  Name = 145996610
REMARK  10 active torsions:
REMARK  status: ('A' for Active; 'I' for Inactive)
REMARK    1  A    between atoms: O_2  and  C_11
REMARK    2  A    between atoms: O_3  and  C_12
REMARK    3  A    between atoms: O_4  and  C_15
REMARK    4  A    between atoms: O_4  and  C_18
REMARK    5  A    between atoms: O_7  and  N_10
REMARK    6  A    between atoms: N_8  and  C_14
REMARK    7  A    between atoms: C_13  and  C_15
REMARK    8  A    between atoms: C_18  and  C_20
REMARK    9  A    between atoms: C_20  and  C_22
REMARK   10  A    between atoms: C_20  and  C_23
REMARK                            x       y       z     vdW  Elec       q    Type
REMARK                         _______ _______ _______ _____ _____    ______ ____
ROOT
ATOM      1  O   UNL     1     -28.364  19.264 -17.848  0.00  0.00    +0.000 OA
ATOM      2  C   UNL     1     -26.874  20.979 -17.167  0.00  0.00    +0.000 C 
ATOM      3  C   UNL     1     -26.929  19.925 -16.079  0.00  0.00    +0.000 C 
ATOM      4  C   UNL     1     -27.424  20.226 -18.373  0.00  0.00    +0.000 C 
ATOM      5  C   UNL     1     -28.206  19.178 -16.422  0.00  0.00    +0.000 C 
ENDROOT
BRANCH   5   7
ATOM      6  O   UNL     1     -30.443  17.513 -16.020  0.00  0.00    +0.000 OA
ATOM      7  N   UNL     1     -28.153  17.797 -16.036  0.00  0.00    +0.000 N 
ATOM      8  N   UNL     1     -29.199  15.693 -15.479  0.00  0.00    +0.000 NA
ATOM      9  N   UNL     1     -27.918  13.833 -14.924  0.00  0.00    +0.000 N 
ATOM     10  C   UNL     1     -26.913  17.208 -15.835  0.00  0.00    +0.000 A 
ATOM     11  C   UNL     1     -29.325  17.021 -15.852  0.00  0.00    +0.000 A 
ATOM     12  C   UNL     1     -26.770  15.934 -15.475  0.00  0.00    +0.000 A 
ATOM     13  C   UNL     1     -28.022  15.155 -15.294  0.00  0.00    +0.000 A 
ATOM     14  H   UNL     1     -27.058  13.393 -14.733  0.00  0.00    +0.000 HD
BRANCH   9  15
ATOM     15  O   UNL     1     -29.120  13.194 -14.845  0.00  0.00    +0.000 OA
ATOM     16  H   UNL     1     -29.001  12.333 -14.415  0.00  0.00    +0.000 HD
ENDBRANCH   9  15
ENDBRANCH   5   7
BRANCH   2  17
ATOM     17  O   UNL     1     -27.739  22.072 -16.859  0.00  0.00    +0.000 OA
ATOM     18  H   UNL     1     -27.957  22.552 -17.674  0.00  0.00    +0.000 HD
ENDBRANCH   2  17
BRANCH   3  19
ATOM     19  O   UNL     1     -26.970  20.470 -14.777  0.00  0.00    +0.000 OA
ATOM     20  H   UNL     1     -26.131  20.287 -14.324  0.00  0.00    +0.000 HD
ENDBRANCH   3  19
BRANCH   4  21
ATOM     21  C   UNL     1     -26.353  19.467 -19.145  0.00  0.00    +0.000 C 
BRANCH  21  22
ATOM     22  O   UNL     1     -26.484  19.774 -20.522  0.00  0.00    +0.000 OA
BRANCH  22  24
ATOM     23  O   UNL     1     -28.388  18.990 -21.561  0.00  0.00    +0.000 OA
ATOM     24  C   UNL     1     -27.203  18.879 -21.275  0.00  0.00    +0.000 C 
BRANCH  24  25
ATOM     25  C   UNL     1     -26.309  17.734 -21.714  0.00  0.00    +0.000 C 
ATOM     26  C   UNL     1     -27.134  16.605 -22.324  0.00  0.00    +0.000 C 
ATOM     27  C   UNL     1     -25.268  18.245 -22.704  0.00  0.00    +0.000 C 
ENDBRANCH  24  25
ENDBRANCH  22  24
ENDBRANCH  21  22
ENDBRANCH   4  21
TORSDOF 8
ENDMDL
MODEL 6
REMARK VINA RESULT:    -5.753      2.412      4.932
REMARK INTER + INTRA:          -8.578
REMARK INTER:                  -7.605
REMARK INTRA:                  -0.972
REMARK UNBOUND:                -0.638
REMARK  Name = 145996610
REMARK  10 active torsions:
REMARK  status: ('A' for Active; 'I' for Inactive)
REMARK    1  A    between atoms: O_2  and  C_11
REMARK    2  A    between atoms: O_3  and  C_12
REMARK    3  A    between atoms: O_4  and  C_15
REMARK    4  A    between atoms: O_4  and  C_18
REMARK    5  A    between atoms: O_7  and  N_10
REMARK    6  A    between atoms: N_8  and  C_14
REMARK    7  A    between atoms: C_13  and  C_15
REMARK    8  A    between atoms: C_18  and  C_20
REMARK    9  A    between atoms: C_20  and  C_22
REMARK   10  A    between atoms: C_20  and  C_23
REMARK                            x       y       z     vdW  Elec       q    Type
REMARK                         _______ _______ _______ _____ _____    ______ ____
ROOT
ATOM      1  O   UNL     1     -22.008   6.552 -23.115  0.00  0.00    +0.000 OA
ATOM      2  C   UNL     1     -19.727   6.355 -22.495  0.00  0.00    +0.000 C 
ATOM      3  C   UNL     1     -20.450   7.161 -21.434  0.00  0.00    +0.000 C 
ATOM      4  C   UNL     1     -20.879   5.657 -23.209  0.00  0.00    +0.000 C 
ATOM      5  C   UNL     1     -21.714   7.585 -22.161  0.00  0.00    +0.000 C 
ENDROOT
BRANCH   5   7
ATOM      6  O   UNL     1     -23.698   9.575 -22.370  0.00  0.00    +0.000 OA
ATOM      7  N   UNL     1     -22.831   7.739 -21.273  0.00  0.00    +0.000 N 
ATOM      8  N   UNL     1     -24.845   8.856 -20.547  0.00  0.00    +0.000 NA
ATOM      9  N   UNL     1     -26.014   8.115 -18.678  0.00  0.00    +0.000 N 
ATOM     10  C   UNL     1     -22.970   6.851 -20.216  0.00  0.00    +0.000 A 
ATOM     11  C   UNL     1     -23.792   8.768 -21.442  0.00  0.00    +0.000 A 
ATOM     12  C   UNL     1     -23.973   6.919 -19.344  0.00  0.00    +0.000 A 
ATOM     13  C   UNL     1     -24.959   8.011 -19.557  0.00  0.00    +0.000 A 
ATOM     14  H   UNL     1     -26.122   7.530 -17.894  0.00  0.00    +0.000 HD
BRANCH   9  15
ATOM     15  O   UNL     1     -26.892   9.109 -18.998  0.00  0.00    +0.000 OA
ATOM     16  H   UNL     1     -27.749   8.720 -19.233  0.00  0.00    +0.000 HD
ENDBRANCH   9  15
ENDBRANCH   5   7
BRANCH   2  17
ATOM     17  O   UNL     1     -19.054   7.215 -23.414  0.00  0.00    +0.000 OA
ATOM     18  H   UNL     1     -19.249   8.140 -23.194  0.00  0.00    +0.000 HD
ENDBRANCH   2  17
BRANCH   3  19
ATOM     19  O   UNL     1     -19.707   8.270 -20.974  0.00  0.00    +0.000 OA
ATOM     20  H   UNL     1     -19.113   8.576 -21.678  0.00  0.00    +0.000 HD
ENDBRANCH   3  19
BRANCH   4  21
ATOM     21  C   UNL     1     -21.271   4.334 -22.564  0.00  0.00    +0.000 C 
BRANCH  21  22
ATOM     22  O   UNL     1     -22.655   4.366 -22.267  0.00  0.00    +0.000 OA
BRANCH  22  24
ATOM     23  O   UNL     1     -22.846   2.069 -22.182  0.00  0.00    +0.000 OA
ATOM     24  C   UNL     1     -23.327   3.176 -22.390  0.00  0.00    +0.000 C 
BRANCH  24  25
ATOM     25  C   UNL     1     -24.763   3.431 -22.812  0.00  0.00    +0.000 C 
ATOM     26  C   UNL     1     -25.299   4.705 -22.165  0.00  0.00    +0.000 C 
ATOM     27  C   UNL     1     -24.845   3.514 -24.331  0.00  0.00    +0.000 C 
ENDBRANCH  24  25
ENDBRANCH  22  24
ENDBRANCH  21  22
ENDBRANCH   4  21
TORSDOF 8
ENDMDL
MODEL 7
REMARK VINA RESULT:    -5.655      5.274      7.725
REMARK INTER + INTRA:          -8.441
REMARK INTER:                  -7.586
REMARK INTRA:                  -0.855
REMARK UNBOUND:                -0.638
REMARK  Name = 145996610
REMARK  10 active torsions:
REMARK  status: ('A' for Active; 'I' for Inactive)
REMARK    1  A    between atoms: O_2  and  C_11
REMARK    2  A    between atoms: O_3  and  C_12
REMARK    3  A    between atoms: O_4  and  C_15
REMARK    4  A    between atoms: O_4  and  C_18
REMARK    5  A    between atoms: O_7  and  N_10
REMARK    6  A    between atoms: N_8  and  C_14
REMARK    7  A    between atoms: C_13  and  C_15
REMARK    8  A    between atoms: C_18  and  C_20
REMARK    9  A    between atoms: C_20  and  C_22
REMARK   10  A    between atoms: C_20  and  C_23
REMARK                            x       y       z     vdW  Elec       q    Type
REMARK                         _______ _______ _______ _____ _____    ______ ____
ROOT
ATOM      1  O   UNL     1     -19.973   5.542 -27.275  0.00  0.00    +0.000 OA
ATOM      2  C   UNL     1     -18.978   3.516 -28.002  0.00  0.00    +0.000 C 
ATOM      3  C   UNL     1     -18.468   3.834 -26.610  0.00  0.00    +0.000 C 
ATOM      4  C   UNL     1     -20.231   4.379 -28.091  0.00  0.00    +0.000 C 
ATOM      5  C   UNL     1     -18.801   5.310 -26.478  0.00  0.00    +0.000 C 
ENDROOT
BRANCH   5   7
ATOM      6  O   UNL     1     -18.313   7.857 -25.376  0.00  0.00    +0.000 OA
ATOM      7  N   UNL     1     -19.070   5.691 -25.122  0.00  0.00    +0.000 N 
ATOM      8  N   UNL     1     -19.082   7.294 -23.316  0.00  0.00    +0.000 NA
ATOM      9  N   UNL     1     -19.871   6.712 -21.207  0.00  0.00    +0.000 N 
ATOM     10  C   UNL     1     -19.612   4.750 -24.259  0.00  0.00    +0.000 A 
ATOM     11  C   UNL     1     -18.797   6.996 -24.638  0.00  0.00    +0.000 A 
ATOM     12  C   UNL     1     -19.893   5.016 -22.985  0.00  0.00    +0.000 A 
ATOM     13  C   UNL     1     -19.593   6.395 -22.517  0.00  0.00    +0.000 A 
ATOM     14  H   UNL     1     -20.217   6.059 -20.556  0.00  0.00    +0.000 HD
BRANCH   9  15
ATOM     15  O   UNL     1     -19.617   8.016 -20.897  0.00  0.00    +0.000 OA
ATOM     16  H   UNL     1     -19.928   8.201 -19.997  0.00  0.00    +0.000 HD
ENDBRANCH   9  15
ENDBRANCH   5   7
BRANCH   2  17
ATOM     17  O   UNL     1     -18.042   3.938 -28.994  0.00  0.00    +0.000 OA
ATOM     18  H   UNL     1     -17.181   3.524 -28.823  0.00  0.00    +0.000 HD
ENDBRANCH   2  17
BRANCH   3  19
ATOM     19  O   UNL     1     -17.087   3.587 -26.452  0.00  0.00    +0.000 OA
ATOM     20  H   UNL     1     -16.784   3.971 -25.614  0.00  0.00    +0.000 HD
ENDBRANCH   3  19
BRANCH   4  21
ATOM     21  C   UNL     1     -21.475   3.688 -27.550  0.00  0.00    +0.000 C 
BRANCH  21  22
ATOM     22  O   UNL     1     -22.555   4.603 -27.588  0.00  0.00    +0.000 OA
BRANCH  22  24
ATOM     23  O   UNL     1     -24.021   3.499 -28.985  0.00  0.00    +0.000 OA
ATOM     24  C   UNL     1     -23.394   4.502 -28.670  0.00  0.00    +0.000 C 
BRANCH  24  25
ATOM     25  C   UNL     1     -23.440   5.823 -29.416  0.00  0.00    +0.000 C 
ATOM     26  C   UNL     1     -24.687   5.908 -30.292  0.00  0.00    +0.000 C 
ATOM     27  C   UNL     1     -23.392   6.977 -28.421  0.00  0.00    +0.000 C 
ENDBRANCH  24  25
ENDBRANCH  22  24
ENDBRANCH  21  22
ENDBRANCH   4  21
TORSDOF 8
ENDMDL
MODEL 8
REMARK VINA RESULT:    -5.628      3.621      7.841
REMARK INTER + INTRA:          -8.405
REMARK INTER:                  -7.613
REMARK INTRA:                  -0.792
REMARK UNBOUND:                -0.638
REMARK  Name = 145996610
REMARK  10 active torsions:
REMARK  status: ('A' for Active; 'I' for Inactive)
REMARK    1  A    between atoms: O_2  and  C_11
REMARK    2  A    between atoms: O_3  and  C_12
REMARK    3  A    between atoms: O_4  and  C_15
REMARK    4  A    between atoms: O_4  and  C_18
REMARK    5  A    between atoms: O_7  and  N_10
REMARK    6  A    between atoms: N_8  and  C_14
REMARK    7  A    between atoms: C_13  and  C_15
REMARK    8  A    between atoms: C_18  and  C_20
REMARK    9  A    between atoms: C_20  and  C_22
REMARK   10  A    between atoms: C_20  and  C_23
REMARK                            x       y       z     vdW  Elec       q    Type
REMARK                         _______ _______ _______ _____ _____    ______ ____
ROOT
ATOM      1  O   UNL     1     -20.055   4.545 -21.833  0.00  0.00    +0.000 OA
ATOM      2  C   UNL     1     -20.552   6.857 -21.655  0.00  0.00    +0.000 C 
ATOM      3  C   UNL     1     -19.344   6.689 -22.555  0.00  0.00    +0.000 C 
ATOM      4  C   UNL     1     -21.160   5.460 -21.668  0.00  0.00    +0.000 C 
ATOM      5  C   UNL     1     -18.882   5.284 -22.211  0.00  0.00    +0.000 C 
ENDROOT
BRANCH   5   7
ATOM      6  O   UNL     1     -16.227   4.342 -22.244  0.00  0.00    +0.000 OA
ATOM      7  N   UNL     1     -18.249   4.629 -23.319  0.00  0.00    +0.000 N 
ATOM      8  N   UNL     1     -16.358   3.556 -24.369  0.00  0.00    +0.000 NA
ATOM      9  N   UNL     1     -16.498   2.754 -26.548  0.00  0.00    +0.000 N 
ATOM     10  C   UNL     1     -18.978   4.431 -24.482  0.00  0.00    +0.000 A 
ATOM     11  C   UNL     1     -16.905   4.181 -23.261  0.00  0.00    +0.000 A 
ATOM     12  C   UNL     1     -18.471   3.833 -25.559  0.00  0.00    +0.000 A 
ATOM     13  C   UNL     1     -17.059   3.378 -25.457  0.00  0.00    +0.000 A 
ATOM     14  H   UNL     1     -16.970   2.632 -27.403  0.00  0.00    +0.000 HD
BRANCH   9  15
ATOM     15  O   UNL     1     -15.222   2.321 -26.330  0.00  0.00    +0.000 OA
ATOM     16  H   UNL     1     -15.007   2.411 -25.388  0.00  0.00    +0.000 HD
ENDBRANCH   9  15
ENDBRANCH   5   7
BRANCH   2  17
ATOM     17  O   UNL     1     -20.152   7.185 -20.325  0.00  0.00    +0.000 OA
ATOM     18  H   UNL     1     -20.755   7.854 -19.961  0.00  0.00    +0.000 HD
ENDBRANCH   2  17
BRANCH   3  19
ATOM     19  O   UNL     1     -18.336   7.649 -22.320  0.00  0.00    +0.000 OA
ATOM     20  H   UNL     1     -18.007   7.557 -21.411  0.00  0.00    +0.000 HD
ENDBRANCH   3  19
BRANCH   4  21
ATOM     21  C   UNL     1     -22.131   5.239 -22.820  0.00  0.00    +0.000 C 
BRANCH  21  22
ATOM     22  O   UNL     1     -23.242   6.101 -22.649  0.00  0.00    +0.000 OA
BRANCH  22  24
ATOM     23  O   UNL     1     -24.723   4.410 -22.129  0.00  0.00    +0.000 OA
ATOM     24  C   UNL     1     -24.330   5.564 -22.007  0.00  0.00    +0.000 C 
BRANCH  24  25
ATOM     25  C   UNL     1     -24.971   6.607 -21.110  0.00  0.00    +0.000 C 
ATOM     26  C   UNL     1     -26.304   6.106 -20.561  0.00  0.00    +0.000 C 
ATOM     27  C   UNL     1     -24.016   6.968 -19.978  0.00  0.00    +0.000 C 
ENDBRANCH  24  25
ENDBRANCH  22  24
ENDBRANCH  21  22
ENDBRANCH   4  21
TORSDOF 8
ENDMDL
MODEL 9
REMARK VINA RESULT:    -5.493     10.843     12.930
REMARK INTER + INTRA:          -8.219
REMARK INTER:                  -7.188
REMARK INTRA:                  -1.031
REMARK UNBOUND:                -0.638
REMARK  Name = 145996610
REMARK  10 active torsions:
REMARK  status: ('A' for Active; 'I' for Inactive)
REMARK    1  A    between atoms: O_2  and  C_11
REMARK    2  A    between atoms: O_3  and  C_12
REMARK    3  A    between atoms: O_4  and  C_15
REMARK    4  A    between atoms: O_4  and  C_18
REMARK    5  A    between atoms: O_7  and  N_10
REMARK    6  A    between atoms: N_8  and  C_14
REMARK    7  A    between atoms: C_13  and  C_15
REMARK    8  A    between atoms: C_18  and  C_20
REMARK    9  A    between atoms: C_20  and  C_22
REMARK   10  A    between atoms: C_20  and  C_23
REMARK                            x       y       z     vdW  Elec       q    Type
REMARK                         _______ _______ _______ _____ _____    ______ ____
ROOT
ATOM      1  O   UNL     1     -27.219  14.171 -18.052  0.00  0.00    +0.000 OA
ATOM      2  C   UNL     1     -28.983  12.603 -17.811  0.00  0.00    +0.000 C 
ATOM      3  C   UNL     1     -28.997  13.537 -16.616  0.00  0.00    +0.000 C 
ATOM      4  C   UNL     1     -28.157  13.388 -18.823  0.00  0.00    +0.000 C 
ATOM      5  C   UNL     1     -27.606  14.144 -16.669  0.00  0.00    +0.000 C 
ENDROOT
BRANCH   5   7
ATOM      6  O   UNL     1     -27.286  14.816 -13.952  0.00  0.00    +0.000 OA
ATOM      7  N   UNL     1     -27.571  15.479 -16.144  0.00  0.00    +0.000 N 
ATOM      8  N   UNL     1     -27.381  17.053 -14.324  0.00  0.00    +0.000 NA
ATOM      9  N   UNL     1     -27.480  19.344 -14.711  0.00  0.00    +0.000 N 
ATOM     10  C   UNL     1     -27.704  16.545 -17.022  0.00  0.00    +0.000 A 
ATOM     11  C   UNL     1     -27.406  15.739 -14.760  0.00  0.00    +0.000 A 
ATOM     12  C   UNL     1     -27.684  17.815 -16.623  0.00  0.00    +0.000 A 
ATOM     13  C   UNL     1     -27.508  18.045 -15.165  0.00  0.00    +0.000 A 
ATOM     14  H   UNL     1     -27.612  20.124 -15.298  0.00  0.00    +0.000 HD
BRANCH   9  15
ATOM     15  O   UNL     1     -27.253  19.447 -13.370  0.00  0.00    +0.000 OA
ATOM     16  H   UNL     1     -26.838  20.302 -13.177  0.00  0.00    +0.000 HD
ENDBRANCH   9  15
ENDBRANCH   5   7
BRANCH   2  17
ATOM     17  O   UNL     1     -28.309  11.385 -17.495  0.00  0.00    +0.000 OA
ATOM     18  H   UNL     1     -27.760  11.515 -16.705  0.00  0.00    +0.000 HD
ENDBRANCH   2  17
BRANCH   3  19
ATOM     19  O   UNL     1     -29.238  12.874 -15.394  0.00  0.00    +0.000 OA
ATOM     20  H   UNL     1     -29.381  11.929 -15.561  0.00  0.00    +0.000 HD
ENDBRANCH   3  19
BRANCH   4  21
ATOM     21  C   UNL     1     -28.991  14.345 -19.665  0.00  0.00    +0.000 C 
BRANCH  21  22
ATOM     22  O   UNL     1     -28.119  15.120 -20.468  0.00  0.00    +0.000 OA
BRANCH  22  24
ATOM     23  O   UNL     1     -29.583  15.789 -22.121  0.00  0.00    +0.000 OA
ATOM     24  C   UNL     1     -28.716  16.040 -21.293  0.00  0.00    +0.000 C 
BRANCH  24  25
ATOM     25  C   UNL     1     -28.153  17.423 -21.021  0.00  0.00    +0.000 C 
ATOM     26  C   UNL     1     -27.592  18.041 -22.298  0.00  0.00    +0.000 C 
ATOM     27  C   UNL     1     -29.237  18.309 -20.417  0.00  0.00    +0.000 C 
ENDBRANCH  24  25
ENDBRANCH  22  24
ENDBRANCH  21  22
ENDBRANCH   4  21
TORSDOF 8
ENDMDL
