MODEL 1
REMARK VINA RESULT:    -7.762      0.000      0.000
REMARK INTER + INTRA:         -13.844
REMARK INTER:                 -12.753
REMARK INTRA:                  -1.091
REMARK UNBOUND:                -1.091
REMARK  Name = 64143
REMARK  16 active torsions:
REMARK  status: ('A' for Active; 'I' for Inactive)
REMARK    1  A    between atoms: S_1  and  C_23
REMARK    2  A    between atoms: S_1  and  C_29
REMARK    3  A    between atoms: O_3  and  C_20
REMARK    4  A    between atoms: O_5  and  C_34
REMARK    5  A    between atoms: N_6  and  C_18
REMARK    6  A    between atoms: N_7  and  C_22
REMARK    7  A    between atoms: N_8  and  C_21
REMARK    8  A    between atoms: C_15  and  C_19
REMARK    9  A    between atoms: C_18  and  C_20
REMARK   10  A    between atoms: C_20  and  C_21
REMARK   11  A    between atoms: C_21  and  C_23
REMARK   12  A    between atoms: C_22  and  C_24
REMARK   13  A    between atoms: C_22  and  C_25
REMARK   14  A    between atoms: C_22  and  C_26
REMARK   15  A    between atoms: C_27  and  C_28
REMARK   16  A    between atoms: C_30  and  C_35
REMARK                            x       y       z     vdW  Elec       q    Type
REMARK                         _______ _______ _______ _____ _____    ______ ____
ROOT
ATOM      1  C   UNL     1     -22.799   9.413 -23.071  0.00  0.00    +0.000 C 
ENDROOT
BRANCH   1   2
ATOM      2  O   UNL     1     -21.984   9.235 -24.231  0.00  0.00    +0.000 OA
ATOM      3  H   UNL     1     -22.426   9.628 -25.000  0.00  0.00    +0.000 HD
ENDBRANCH   1   2
BRANCH   1   4
ATOM      4  C   UNL     1     -22.696   8.149 -22.205  0.00  0.00    +0.000 C 
BRANCH   4   5
ATOM      5  N   UNL     1     -21.730   7.189 -22.741  0.00  0.00    +0.000 N 
ATOM      6  C   UNL     1     -21.457   4.817 -20.934  0.00  0.00    +0.000 C 
ATOM      7  C   UNL     1     -22.702   5.051 -21.809  0.00  0.00    +0.000 C 
ATOM      8  C   UNL     1     -20.745   6.151 -20.647  0.00  0.00    +0.000 C 
ATOM      9  C   UNL     1     -22.357   5.894 -23.050  0.00  0.00    +0.000 C 
ATOM     10  C   UNL     1     -20.510   3.762 -21.529  0.00  0.00    +0.000 C 
ATOM     11  C   UNL     1     -23.385   3.726 -22.185  0.00  0.00    +0.000 C 
ATOM     12  C   UNL     1     -20.555   7.062 -21.869  0.00  0.00    +0.000 C 
ATOM     13  C   UNL     1     -21.239   2.456 -21.829  0.00  0.00    +0.000 C 
ATOM     14  C   UNL     1     -22.427   2.685 -22.757  0.00  0.00    +0.000 C 
ATOM     15  H   UNL     1     -21.390   7.556 -23.630  0.00  0.00    +0.000 HD
BRANCH  12  18
ATOM     16  O   UNL     1     -18.590   5.788 -22.340  0.00  0.00    +0.000 OA
ATOM     17  N   UNL     1     -19.350   7.314 -23.926  0.00  0.00    +0.000 N 
ATOM     18  C   UNL     1     -19.395   6.635 -22.720  0.00  0.00    +0.000 C 
ATOM     19  H   UNL     1     -20.056   7.973 -24.118  0.00  0.00    +0.000 HD
BRANCH  17  20
ATOM     20  C   UNL     1     -18.317   7.102 -24.914  0.00  0.00    +0.000 C 
ATOM     21  C   UNL     1     -18.477   8.129 -26.041  0.00  0.00    +0.000 C 
ATOM     22  C   UNL     1     -16.947   7.269 -24.250  0.00  0.00    +0.000 C 
ATOM     23  C   UNL     1     -18.447   5.686 -25.487  0.00  0.00    +0.000 C 
ENDBRANCH  17  20
ENDBRANCH  12  18
ENDBRANCH   4   5
ENDBRANCH   1   4
BRANCH   1  24
ATOM     24  C   UNL     1     -24.234   9.775 -23.518  0.00  0.00    +0.000 C 
BRANCH  24  26
ATOM     25  O   UNL     1     -26.820   9.400 -22.329  0.00  0.00    +0.000 OA
ATOM     26  N   UNL     1     -24.874  10.642 -22.551  0.00  0.00    +0.000 N 
ATOM     27  C   UNL     1     -26.130  10.373 -22.033  0.00  0.00    +0.000 C 
ATOM     28  H   UNL     1     -24.399  11.449 -22.250  0.00  0.00    +0.000 HD
BRANCH  27  29
ATOM     29  C   UNL     1     -26.659  11.373 -21.071  0.00  0.00    +0.000 A 
ATOM     30  C   UNL     1     -26.641  11.135 -19.697  0.00  0.00    +0.000 A 
ATOM     31  C   UNL     1     -27.183  12.568 -21.566  0.00  0.00    +0.000 A 
ATOM     32  C   UNL     1     -27.145  12.093 -18.816  0.00  0.00    +0.000 A 
ATOM     33  C   UNL     1     -26.082   9.857 -19.158  0.00  0.00    +0.000 C 
ATOM     34  C   UNL     1     -27.687  13.525 -20.685  0.00  0.00    +0.000 A 
ATOM     35  C   UNL     1     -27.667  13.288 -19.312  0.00  0.00    +0.000 A 
BRANCH  32  36
ATOM     36  O   UNL     1     -27.135  11.879 -17.471  0.00  0.00    +0.000 OA
ATOM     37  H   UNL     1     -27.592  12.466 -16.901  0.00  0.00    +0.000 HD
ENDBRANCH  32  36
ENDBRANCH  27  29
ENDBRANCH  24  26
BRANCH  24  38
ATOM     38  C   UNL     1     -24.227  10.432 -24.908  0.00  0.00    +0.000 C 
BRANCH  38  39
ATOM     39  S   UNL     1     -25.686   9.965 -25.894  0.00  0.00    +0.000 S 
BRANCH  39  40
ATOM     40  C   UNL     1     -24.972   8.789 -27.038  0.00  0.00    +0.000 A 
ATOM     41  C   UNL     1     -25.794   7.886 -27.713  0.00  0.00    +0.000 A 
ATOM     42  C   UNL     1     -23.594   8.774 -27.254  0.00  0.00    +0.000 A 
ATOM     43  C   UNL     1     -25.236   6.969 -28.604  0.00  0.00    +0.000 A 
ATOM     44  C   UNL     1     -23.037   7.857 -28.145  0.00  0.00    +0.000 A 
ATOM     45  C   UNL     1     -23.859   6.955 -28.820  0.00  0.00    +0.000 A 
ENDBRANCH  39  40
ENDBRANCH  38  39
ENDBRANCH  24  38
ENDBRANCH   1  24
TORSDOF 12
ENDMDL
MODEL 2
REMARK VINA RESULT:    -7.678      2.777      5.806
REMARK INTER + INTRA:         -13.707
REMARK INTER:                 -11.651
REMARK INTRA:                  -2.056
REMARK UNBOUND:                -1.091
REMARK  Name = 64143
REMARK  16 active torsions:
REMARK  status: ('A' for Active; 'I' for Inactive)
REMARK    1  A    between atoms: S_1  and  C_23
REMARK    2  A    between atoms: S_1  and  C_29
REMARK    3  A    between atoms: O_3  and  C_20
REMARK    4  A    between atoms: O_5  and  C_34
REMARK    5  A    between atoms: N_6  and  C_18
REMARK    6  A    between atoms: N_7  and  C_22
REMARK    7  A    between atoms: N_8  and  C_21
REMARK    8  A    between atoms: C_15  and  C_19
REMARK    9  A    between atoms: C_18  and  C_20
REMARK   10  A    between atoms: C_20  and  C_21
REMARK   11  A    between atoms: C_21  and  C_23
REMARK   12  A    between atoms: C_22  and  C_24
REMARK   13  A    between atoms: C_22  and  C_25
REMARK   14  A    between atoms: C_22  and  C_26
REMARK   15  A    between atoms: C_27  and  C_28
REMARK   16  A    between atoms: C_30  and  C_35
REMARK                            x       y       z     vdW  Elec       q    Type
REMARK                         _______ _______ _______ _____ _____    ______ ____
ROOT
ATOM      1  C   UNL     1     -22.992   9.325 -23.296  0.00  0.00    +0.000 C 
ENDROOT
BRANCH   1   2
ATOM      2  O   UNL     1     -21.976   9.265 -24.299  0.00  0.00    +0.000 OA
ATOM      3  H   UNL     1     -22.389   9.217 -25.175  0.00  0.00    +0.000 HD
ENDBRANCH   1   2
BRANCH   1   4
ATOM      4  C   UNL     1     -22.739   8.204 -22.278  0.00  0.00    +0.000 C 
BRANCH   4   5
ATOM      5  N   UNL     1     -21.778   7.216 -22.770  0.00  0.00    +0.000 N 
ATOM      6  C   UNL     1     -21.672   4.829 -20.967  0.00  0.00    +0.000 C 
ATOM      7  C   UNL     1     -22.863   5.106 -21.902  0.00  0.00    +0.000 C 
ATOM      8  C   UNL     1     -20.933   6.138 -20.636  0.00  0.00    +0.000 C 
ATOM      9  C   UNL     1     -22.429   5.943 -23.119  0.00  0.00    +0.000 C 
ATOM     10  C   UNL     1     -20.730   3.746 -21.520  0.00  0.00    +0.000 C 
ATOM     11  C   UNL     1     -23.568   3.805 -22.320  0.00  0.00    +0.000 C 
ATOM     12  C   UNL     1     -20.653   7.048 -21.842  0.00  0.00    +0.000 C 
ATOM     13  C   UNL     1     -21.483   2.465 -21.865  0.00  0.00    +0.000 C 
ATOM     14  C   UNL     1     -22.615   2.737 -22.849  0.00  0.00    +0.000 C 
ATOM     15  H   UNL     1     -21.383   7.576 -23.639  0.00  0.00    +0.000 HD
BRANCH  12  18
ATOM     16  O   UNL     1     -18.710   5.712 -22.222  0.00  0.00    +0.000 OA
ATOM     17  N   UNL     1     -19.337   7.273 -23.831  0.00  0.00    +0.000 N 
ATOM     18  C   UNL     1     -19.466   6.588 -22.636  0.00  0.00    +0.000 C 
ATOM     19  H   UNL     1     -20.009   7.957 -24.054  0.00  0.00    +0.000 HD
BRANCH  17  20
ATOM     20  C   UNL     1     -18.262   7.034 -24.767  0.00  0.00    +0.000 C 
ATOM     21  C   UNL     1     -18.370   8.031 -25.927  0.00  0.00    +0.000 C 
ATOM     22  C   UNL     1     -16.921   7.217 -24.049  0.00  0.00    +0.000 C 
ATOM     23  C   UNL     1     -18.370   5.604 -25.308  0.00  0.00    +0.000 C 
ENDBRANCH  17  20
ENDBRANCH  12  18
ENDBRANCH   4   5
ENDBRANCH   1   4
BRANCH   1  24
ATOM     24  C   UNL     1     -24.377   9.275 -23.983  0.00  0.00    +0.000 C 
BRANCH  24  26
ATOM     25  O   UNL     1     -24.613  10.207 -26.687  0.00  0.00    +0.000 OA
ATOM     26  N   UNL     1     -24.331   8.466 -25.183  0.00  0.00    +0.000 N 
ATOM     27  C   UNL     1     -24.454   9.012 -26.449  0.00  0.00    +0.000 C 
ATOM     28  H   UNL     1     -24.206   7.494 -25.095  0.00  0.00    +0.000 HD
BRANCH  27  29
ATOM     29  C   UNL     1     -24.413   8.046 -27.576  0.00  0.00    +0.000 A 
ATOM     30  C   UNL     1     -25.583   7.512 -28.115  0.00  0.00    +0.000 A 
ATOM     31  C   UNL     1     -23.172   7.673 -28.095  0.00  0.00    +0.000 A 
ATOM     32  C   UNL     1     -25.514   6.606 -29.174  0.00  0.00    +0.000 A 
ATOM     33  C   UNL     1     -26.917   7.905 -27.564  0.00  0.00    +0.000 C 
ATOM     34  C   UNL     1     -23.103   6.768 -29.154  0.00  0.00    +0.000 A 
ATOM     35  C   UNL     1     -24.273   6.235 -29.693  0.00  0.00    +0.000 A 
BRANCH  32  36
ATOM     36  O   UNL     1     -26.646   6.074 -29.713  0.00  0.00    +0.000 OA
ATOM     37  H   UNL     1     -26.587   5.493 -30.447  0.00  0.00    +0.000 HD
ENDBRANCH  32  36
ENDBRANCH  27  29
ENDBRANCH  24  26
BRANCH  24  38
ATOM     38  C   UNL     1     -25.450   8.747 -23.017  0.00  0.00    +0.000 C 
BRANCH  38  39
ATOM     39  S   UNL     1     -26.664   7.679 -23.858  0.00  0.00    +0.000 S 
BRANCH  39  40
ATOM     40  C   UNL     1     -26.808   6.330 -22.693  0.00  0.00    +0.000 A 
ATOM     41  C   UNL     1     -26.391   6.502 -21.373  0.00  0.00    +0.000 A 
ATOM     42  C   UNL     1     -27.337   5.107 -23.103  0.00  0.00    +0.000 A 
ATOM     43  C   UNL     1     -26.503   5.449 -20.464  0.00  0.00    +0.000 A 
ATOM     44  C   UNL     1     -27.449   4.055 -22.195  0.00  0.00    +0.000 A 
ATOM     45  C   UNL     1     -27.032   4.227 -20.875  0.00  0.00    +0.000 A 
ENDBRANCH  39  40
ENDBRANCH  38  39
ENDBRANCH  24  38
ENDBRANCH   1  24
TORSDOF 12
ENDMDL
MODEL 3
REMARK VINA RESULT:    -7.455      3.189      8.362
REMARK INTER + INTRA:         -13.340
REMARK INTER:                 -12.124
REMARK INTRA:                  -1.216
REMARK UNBOUND:                -1.091
REMARK  Name = 64143
REMARK  16 active torsions:
REMARK  status: ('A' for Active; 'I' for Inactive)
REMARK    1  A    between atoms: S_1  and  C_23
REMARK    2  A    between atoms: S_1  and  C_29
REMARK    3  A    between atoms: O_3  and  C_20
REMARK    4  A    between atoms: O_5  and  C_34
REMARK    5  A    between atoms: N_6  and  C_18
REMARK    6  A    between atoms: N_7  and  C_22
REMARK    7  A    between atoms: N_8  and  C_21
REMARK    8  A    between atoms: C_15  and  C_19
REMARK    9  A    between atoms: C_18  and  C_20
REMARK   10  A    between atoms: C_20  and  C_21
REMARK   11  A    between atoms: C_21  and  C_23
REMARK   12  A    between atoms: C_22  and  C_24
REMARK   13  A    between atoms: C_22  and  C_25
REMARK   14  A    between atoms: C_22  and  C_26
REMARK   15  A    between atoms: C_27  and  C_28
REMARK   16  A    between atoms: C_30  and  C_35
REMARK                            x       y       z     vdW  Elec       q    Type
REMARK                         _______ _______ _______ _____ _____    ______ ____
ROOT
ATOM      1  C   UNL     1     -21.137   7.409 -21.896  0.00  0.00    +0.000 C 
ENDROOT
BRANCH   1   2
ATOM      2  O   UNL     1     -19.942   7.900 -21.285  0.00  0.00    +0.000 OA
ATOM      3  H   UNL     1     -19.401   8.351 -21.951  0.00  0.00    +0.000 HD
ENDBRANCH   1   2
BRANCH   1   4
ATOM      4  C   UNL     1     -22.122   7.009 -20.788  0.00  0.00    +0.000 C 
BRANCH   4   5
ATOM      5  N   UNL     1     -23.485   6.842 -21.293  0.00  0.00    +0.000 N 
ATOM      6  C   UNL     1     -25.300   8.961 -20.206  0.00  0.00    +0.000 C 
ATOM      7  C   UNL     1     -24.235   9.255 -21.279  0.00  0.00    +0.000 C 
ATOM      8  C   UNL     1     -24.905   7.721 -19.384  0.00  0.00    +0.000 C 
ATOM      9  C   UNL     1     -23.915   7.993 -22.102  0.00  0.00    +0.000 C 
ATOM     10  C   UNL     1     -26.715   8.849 -20.797  0.00  0.00    +0.000 C 
ATOM     11  C   UNL     1     -24.645  10.436 -22.173  0.00  0.00    +0.000 C 
ATOM     12  C   UNL     1     -24.425   6.519 -20.212  0.00  0.00    +0.000 C 
ATOM     13  C   UNL     1     -27.078  10.075 -21.628  0.00  0.00    +0.000 C 
ATOM     14  C   UNL     1     -26.059  10.315 -22.736  0.00  0.00    +0.000 C 
ATOM     15  H   UNL     1     -23.485   6.041 -21.923  0.00  0.00    +0.000 HD
BRANCH  12  18
ATOM     16  O   UNL     1     -26.737   6.042 -20.576  0.00  0.00    +0.000 OA
ATOM     17  N   UNL     1     -25.134   4.703 -21.605  0.00  0.00    +0.000 N 
ATOM     18  C   UNL     1     -25.566   5.750 -20.809  0.00  0.00    +0.000 C 
ATOM     19  H   UNL     1     -24.165   4.570 -21.717  0.00  0.00    +0.000 HD
BRANCH  17  20
ATOM     20  C   UNL     1     -26.037   3.796 -22.277  0.00  0.00    +0.000 C 
ATOM     21  C   UNL     1     -26.862   4.575 -23.308  0.00  0.00    +0.000 C 
ATOM     22  C   UNL     1     -25.221   2.707 -22.981  0.00  0.00    +0.000 C 
ATOM     23  C   UNL     1     -26.974   3.158 -21.246  0.00  0.00    +0.000 C 
ENDBRANCH  17  20
ENDBRANCH  12  18
ENDBRANCH   4   5
ENDBRANCH   1   4
BRANCH   1  24
ATOM     24  C   UNL     1     -20.767   6.270 -22.875  0.00  0.00    +0.000 C 
BRANCH  24  26
ATOM     25  O   UNL     1     -23.235   5.423 -24.070  0.00  0.00    +0.000 OA
ATOM     26  N   UNL     1     -21.226   6.570 -24.215  0.00  0.00    +0.000 N 
ATOM     27  C   UNL     1     -22.439   6.113 -24.701  0.00  0.00    +0.000 C 
ATOM     28  H   UNL     1     -20.656   7.119 -24.800  0.00  0.00    +0.000 HD
BRANCH  27  29
ATOM     29  C   UNL     1     -22.753   6.484 -26.105  0.00  0.00    +0.000 A 
ATOM     30  C   UNL     1     -22.757   5.530 -27.121  0.00  0.00    +0.000 A 
ATOM     31  C   UNL     1     -23.047   7.816 -26.397  0.00  0.00    +0.000 A 
ATOM     32  C   UNL     1     -23.056   5.907 -28.431  0.00  0.00    +0.000 A 
ATOM     33  C   UNL     1     -22.443   4.099 -26.818  0.00  0.00    +0.000 C 
ATOM     34  C   UNL     1     -23.345   8.194 -27.705  0.00  0.00    +0.000 A 
ATOM     35  C   UNL     1     -23.351   7.239 -28.722  0.00  0.00    +0.000 A 
BRANCH  32  36
ATOM     36  O   UNL     1     -23.066   4.990 -29.438  0.00  0.00    +0.000 OA
ATOM     37  H   UNL     1     -22.593   4.186 -29.343  0.00  0.00    +0.000 HD
ENDBRANCH  32  36
ENDBRANCH  27  29
ENDBRANCH  24  26
BRANCH  24  38
ATOM     38  C   UNL     1     -19.252   6.011 -22.869  0.00  0.00    +0.000 C 
BRANCH  38  39
ATOM     39  S   UNL     1     -18.823   4.466 -22.004  0.00  0.00    +0.000 S 
BRANCH  39  40
ATOM     40  C   UNL     1     -17.164   4.178 -22.607  0.00  0.00    +0.000 A 
ATOM     41  C   UNL     1     -16.947   3.272 -23.644  0.00  0.00    +0.000 A 
ATOM     42  C   UNL     1     -16.087   4.861 -22.040  0.00  0.00    +0.000 A 
ATOM     43  C   UNL     1     -15.652   3.047 -24.114  0.00  0.00    +0.000 A 
ATOM     44  C   UNL     1     -14.793   4.636 -22.509  0.00  0.00    +0.000 A 
ATOM     45  C   UNL     1     -14.576   3.730 -23.546  0.00  0.00    +0.000 A 
ENDBRANCH  39  40
ENDBRANCH  38  39
ENDBRANCH  24  38
ENDBRANCH   1  24
TORSDOF 12
ENDMDL
MODEL 4
REMARK VINA RESULT:    -7.437      2.468      5.360
REMARK INTER + INTRA:         -13.311
REMARK INTER:                 -11.344
REMARK INTRA:                  -1.967
REMARK UNBOUND:                -1.091
REMARK  Name = 64143
REMARK  16 active torsions:
REMARK  status: ('A' for Active; 'I' for Inactive)
REMARK    1  A    between atoms: S_1  and  C_23
REMARK    2  A    between atoms: S_1  and  C_29
REMARK    3  A    between atoms: O_3  and  C_20
REMARK    4  A    between atoms: O_5  and  C_34
REMARK    5  A    between atoms: N_6  and  C_18
REMARK    6  A    between atoms: N_7  and  C_22
REMARK    7  A    between atoms: N_8  and  C_21
REMARK    8  A    between atoms: C_15  and  C_19
REMARK    9  A    between atoms: C_18  and  C_20
REMARK   10  A    between atoms: C_20  and  C_21
REMARK   11  A    between atoms: C_21  and  C_23
REMARK   12  A    between atoms: C_22  and  C_24
REMARK   13  A    between atoms: C_22  and  C_25
REMARK   14  A    between atoms: C_22  and  C_26
REMARK   15  A    between atoms: C_27  and  C_28
REMARK   16  A    between atoms: C_30  and  C_35
REMARK                            x       y       z     vdW  Elec       q    Type
REMARK                         _______ _______ _______ _____ _____    ______ ____
ROOT
ATOM      1  C   UNL     1     -22.921   9.414 -23.168  0.00  0.00    +0.000 C 
ENDROOT
BRANCH   1   2
ATOM      2  O   UNL     1     -21.986   9.292 -24.241  0.00  0.00    +0.000 OA
ATOM      3  H   UNL     1     -21.424   8.516 -24.094  0.00  0.00    +0.000 HD
ENDBRANCH   1   2
BRANCH   1   4
ATOM      4  C   UNL     1     -22.791   8.179 -22.266  0.00  0.00    +0.000 C 
BRANCH   4   5
ATOM      5  N   UNL     1     -21.813   7.220 -22.778  0.00  0.00    +0.000 N 
ATOM      6  C   UNL     1     -21.623   4.822 -20.996  0.00  0.00    +0.000 C 
ATOM      7  C   UNL     1     -22.833   5.077 -21.914  0.00  0.00    +0.000 C 
ATOM      8  C   UNL     1     -20.912   6.147 -20.664  0.00  0.00    +0.000 C 
ATOM      9  C   UNL     1     -22.436   5.934 -23.129  0.00  0.00    +0.000 C 
ATOM     10  C   UNL     1     -20.662   3.767 -21.571  0.00  0.00    +0.000 C 
ATOM     11  C   UNL     1     -23.510   3.762 -22.334  0.00  0.00    +0.000 C 
ATOM     12  C   UNL     1     -20.672   7.073 -21.866  0.00  0.00    +0.000 C 
ATOM     13  C   UNL     1     -21.388   2.471 -21.916  0.00  0.00    +0.000 C 
ATOM     14  C   UNL     1     -22.539   2.722 -22.884  0.00  0.00    +0.000 C 
ATOM     15  H   UNL     1     -21.438   7.597 -23.649  0.00  0.00    +0.000 HD
BRANCH  12  18
ATOM     16  O   UNL     1     -18.683   5.811 -22.270  0.00  0.00    +0.000 OA
ATOM     17  N   UNL     1     -19.409   7.320 -23.888  0.00  0.00    +0.000 N 
ATOM     18  C   UNL     1     -19.484   6.649 -22.680  0.00  0.00    +0.000 C 
ATOM     19  H   UNL     1     -20.114   7.972 -24.106  0.00  0.00    +0.000 HD
BRANCH  17  20
ATOM     20  C   UNL     1     -18.346   7.110 -24.844  0.00  0.00    +0.000 C 
ATOM     21  C   UNL     1     -18.458   8.151 -25.963  0.00  0.00    +0.000 C 
ATOM     22  C   UNL     1     -16.996   7.256 -24.133  0.00  0.00    +0.000 C 
ATOM     23  C   UNL     1     -18.470   5.702 -25.438  0.00  0.00    +0.000 C 
ENDBRANCH  17  20
ENDBRANCH  12  18
ENDBRANCH   4   5
ENDBRANCH   1   4
BRANCH   1  24
ATOM     24  C   UNL     1     -24.333   9.639 -23.758  0.00  0.00    +0.000 C 
BRANCH  24  26
ATOM     25  O   UNL     1     -24.584  10.536 -26.473  0.00  0.00    +0.000 OA
ATOM     26  N   UNL     1     -24.544   8.810 -24.926  0.00  0.00    +0.000 N 
ATOM     27  C   UNL     1     -24.652   9.340 -26.200  0.00  0.00    +0.000 C 
ATOM     28  H   UNL     1     -24.612   7.835 -24.810  0.00  0.00    +0.000 HD
BRANCH  27  29
ATOM     29  C   UNL     1     -24.894   8.359 -27.290  0.00  0.00    +0.000 A 
ATOM     30  C   UNL     1     -23.835   7.753 -27.965  0.00  0.00    +0.000 A 
ATOM     31  C   UNL     1     -26.210   8.050 -27.634  0.00  0.00    +0.000 A 
ATOM     32  C   UNL     1     -24.092   6.835 -28.984  0.00  0.00    +0.000 A 
ATOM     33  C   UNL     1     -22.421   8.079 -27.603  0.00  0.00    +0.000 C 
ATOM     34  C   UNL     1     -26.467   7.133 -28.652  0.00  0.00    +0.000 A 
ATOM     35  C   UNL     1     -25.409   6.525 -29.326  0.00  0.00    +0.000 A 
BRANCH  32  36
ATOM     36  O   UNL     1     -23.072   6.231 -29.655  0.00  0.00    +0.000 OA
ATOM     37  H   UNL     1     -22.439   5.723 -29.186  0.00  0.00    +0.000 HD
ENDBRANCH  32  36
ENDBRANCH  27  29
ENDBRANCH  24  26
BRANCH  24  38
ATOM     38  C   UNL     1     -25.418   9.370 -22.703  0.00  0.00    +0.000 C 
BRANCH  38  39
ATOM     39  S   UNL     1     -26.399  10.860 -22.332  0.00  0.00    +0.000 S 
BRANCH  39  40
ATOM     40  C   UNL     1     -26.990  11.302 -23.962  0.00  0.00    +0.000 A 
ATOM     41  C   UNL     1     -27.785  10.409 -24.681  0.00  0.00    +0.000 A 
ATOM     42  C   UNL     1     -26.657  12.539 -24.513  0.00  0.00    +0.000 A 
ATOM     43  C   UNL     1     -28.245  10.754 -25.952  0.00  0.00    +0.000 A 
ATOM     44  C   UNL     1     -27.117  12.884 -25.783  0.00  0.00    +0.000 A 
ATOM     45  C   UNL     1     -27.912  11.991 -26.502  0.00  0.00    +0.000 A 
ENDBRANCH  39  40
ENDBRANCH  38  39
ENDBRANCH  24  38
ENDBRANCH   1  24
TORSDOF 12
ENDMDL
MODEL 5
REMARK VINA RESULT:    -7.417      2.805      4.792
REMARK INTER + INTRA:         -13.277
REMARK INTER:                 -12.133
REMARK INTRA:                  -1.144
REMARK UNBOUND:                -1.091
REMARK  Name = 64143
REMARK  16 active torsions:
REMARK  status: ('A' for Active; 'I' for Inactive)
REMARK    1  A    between atoms: S_1  and  C_23
REMARK    2  A    between atoms: S_1  and  C_29
REMARK    3  A    between atoms: O_3  and  C_20
REMARK    4  A    between atoms: O_5  and  C_34
REMARK    5  A    between atoms: N_6  and  C_18
REMARK    6  A    between atoms: N_7  and  C_22
REMARK    7  A    between atoms: N_8  and  C_21
REMARK    8  A    between atoms: C_15  and  C_19
REMARK    9  A    between atoms: C_18  and  C_20
REMARK   10  A    between atoms: C_20  and  C_21
REMARK   11  A    between atoms: C_21  and  C_23
REMARK   12  A    between atoms: C_22  and  C_24
REMARK   13  A    between atoms: C_22  and  C_25
REMARK   14  A    between atoms: C_22  and  C_26
REMARK   15  A    between atoms: C_27  and  C_28
REMARK   16  A    between atoms: C_30  and  C_35
REMARK                            x       y       z     vdW  Elec       q    Type
REMARK                         _______ _______ _______ _____ _____    ______ ____
ROOT
ATOM      1  C   UNL     1     -27.098  11.094 -22.311  0.00  0.00    +0.000 C 
ENDROOT
BRANCH   1   2
ATOM      2  O   UNL     1     -28.166  11.451 -21.432  0.00  0.00    +0.000 OA
ATOM      3  H   UNL     1     -28.453  12.358 -21.624  0.00  0.00    +0.000 HD
ENDBRANCH   1   2
BRANCH   1   4
ATOM      4  C   UNL     1     -25.876  10.714 -21.462  0.00  0.00    +0.000 C 
BRANCH   4   5
ATOM      5  N   UNL     1     -25.315   9.419 -21.848  0.00  0.00    +0.000 N 
ATOM      6  C   UNL     1     -26.293   7.244 -20.037  0.00  0.00    +0.000 C 
ATOM      7  C   UNL     1     -27.195   7.908 -21.095  0.00  0.00    +0.000 C 
ATOM      8  C   UNL     1     -25.151   8.194 -19.633  0.00  0.00    +0.000 C 
ATOM      9  C   UNL     1     -26.361   8.469 -22.260  0.00  0.00    +0.000 C 
ATOM     10  C   UNL     1     -25.780   5.865 -20.485  0.00  0.00    +0.000 C 
ATOM     11  C   UNL     1     -28.294   6.949 -21.582  0.00  0.00    +0.000 C 
ATOM     12  C   UNL     1     -24.433   8.881 -20.805  0.00  0.00    +0.000 C 
ATOM     13  C   UNL     1     -26.923   4.947 -20.905  0.00  0.00    +0.000 C 
ATOM     14  C   UNL     1     -27.768   5.581 -22.004  0.00  0.00    +0.000 C 
ATOM     15  H   UNL     1     -24.731   9.567 -22.671  0.00  0.00    +0.000 HD
BRANCH  12  18
ATOM     16  O   UNL     1     -23.403   7.831 -22.688  0.00  0.00    +0.000 OA
ATOM     17  N   UNL     1     -22.613   7.343 -20.553  0.00  0.00    +0.000 N 
ATOM     18  C   UNL     1     -23.436   7.976 -21.467  0.00  0.00    +0.000 C 
ATOM     19  H   UNL     1     -22.735   7.542 -19.596  0.00  0.00    +0.000 HD
BRANCH  17  20
ATOM     20  C   UNL     1     -21.583   6.403 -20.934  0.00  0.00    +0.000 C 
ATOM     21  C   UNL     1     -20.922   5.837 -19.672  0.00  0.00    +0.000 C 
ATOM     22  C   UNL     1     -22.217   5.265 -21.741  0.00  0.00    +0.000 C 
ATOM     23  C   UNL     1     -20.532   7.122 -21.786  0.00  0.00    +0.000 C 
ENDBRANCH  17  20
ENDBRANCH  12  18
ENDBRANCH   4   5
ENDBRANCH   1   4
BRANCH   1  24
ATOM     24  C   UNL     1     -26.860  12.253 -23.307  0.00  0.00    +0.000 C 
BRANCH  24  26
ATOM     25  O   UNL     1     -28.540  14.576 -23.440  0.00  0.00    +0.000 OA
ATOM     26  N   UNL     1     -26.660  13.504 -22.607  0.00  0.00    +0.000 N 
ATOM     27  C   UNL     1     -27.532  14.571 -22.737  0.00  0.00    +0.000 C 
ATOM     28  H   UNL     1     -25.878  13.598 -22.017  0.00  0.00    +0.000 HD
BRANCH  27  29
ATOM     29  C   UNL     1     -27.174  15.795 -21.974  0.00  0.00    +0.000 A 
ATOM     30  C   UNL     1     -27.407  15.886 -20.602  0.00  0.00    +0.000 A 
ATOM     31  C   UNL     1     -26.594  16.865 -22.656  0.00  0.00    +0.000 A 
ATOM     32  C   UNL     1     -27.060  17.048 -19.911  0.00  0.00    +0.000 A 
ATOM     33  C   UNL     1     -28.030  14.744 -19.863  0.00  0.00    +0.000 C 
ATOM     34  C   UNL     1     -26.247  18.026 -21.965  0.00  0.00    +0.000 A 
ATOM     35  C   UNL     1     -26.479  18.117 -20.594  0.00  0.00    +0.000 A 
BRANCH  32  36
ATOM     36  O   UNL     1     -27.280  17.156 -18.571  0.00  0.00    +0.000 OA
ATOM     37  H   UNL     1     -28.080  16.836 -18.201  0.00  0.00    +0.000 HD
ENDBRANCH  32  36
ENDBRANCH  27  29
ENDBRANCH  24  26
BRANCH  24  38
ATOM     38  C   UNL     1     -25.663  11.951 -24.224  0.00  0.00    +0.000 C 
BRANCH  38  39
ATOM     39  S   UNL     1     -26.078  10.734 -25.514  0.00  0.00    +0.000 S 
BRANCH  39  40
ATOM     40  C   UNL     1     -24.454  10.324 -26.141  0.00  0.00    +0.000 A 
ATOM     41  C   UNL     1     -24.243   9.105 -26.785  0.00  0.00    +0.000 A 
ATOM     42  C   UNL     1     -23.398  11.223 -25.986  0.00  0.00    +0.000 A 
ATOM     43  C   UNL     1     -22.975   8.785 -27.274  0.00  0.00    +0.000 A 
ATOM     44  C   UNL     1     -22.132  10.903 -26.474  0.00  0.00    +0.000 A 
ATOM     45  C   UNL     1     -21.921   9.684 -27.119  0.00  0.00    +0.000 A 
ENDBRANCH  39  40
ENDBRANCH  38  39
ENDBRANCH  24  38
ENDBRANCH   1  24
TORSDOF 12
ENDMDL
MODEL 6
REMARK VINA RESULT:    -7.386      1.882      6.166
REMARK INTER + INTRA:         -13.227
REMARK INTER:                 -12.039
REMARK INTRA:                  -1.188
REMARK UNBOUND:                -1.091
REMARK  Name = 64143
REMARK  16 active torsions:
REMARK  status: ('A' for Active; 'I' for Inactive)
REMARK    1  A    between atoms: S_1  and  C_23
REMARK    2  A    between atoms: S_1  and  C_29
REMARK    3  A    between atoms: O_3  and  C_20
REMARK    4  A    between atoms: O_5  and  C_34
REMARK    5  A    between atoms: N_6  and  C_18
REMARK    6  A    between atoms: N_7  and  C_22
REMARK    7  A    between atoms: N_8  and  C_21
REMARK    8  A    between atoms: C_15  and  C_19
REMARK    9  A    between atoms: C_18  and  C_20
REMARK   10  A    between atoms: C_20  and  C_21
REMARK   11  A    between atoms: C_21  and  C_23
REMARK   12  A    between atoms: C_22  and  C_24
REMARK   13  A    between atoms: C_22  and  C_25
REMARK   14  A    between atoms: C_22  and  C_26
REMARK   15  A    between atoms: C_27  and  C_28
REMARK   16  A    between atoms: C_30  and  C_35
REMARK                            x       y       z     vdW  Elec       q    Type
REMARK                         _______ _______ _______ _____ _____    ______ ____
ROOT
ATOM      1  C   UNL     1     -23.024   9.241 -23.211  0.00  0.00    +0.000 C 
ENDROOT
BRANCH   1   2
ATOM      2  O   UNL     1     -22.023   9.277 -24.230  0.00  0.00    +0.000 OA
ATOM      3  H   UNL     1     -21.166   9.031 -23.849  0.00  0.00    +0.000 HD
ENDBRANCH   1   2
BRANCH   1   4
ATOM      4  C   UNL     1     -22.653   8.145 -22.202  0.00  0.00    +0.000 C 
BRANCH   4   5
ATOM      5  N   UNL     1     -21.681   7.197 -22.747  0.00  0.00    +0.000 N 
ATOM      6  C   UNL     1     -21.413   4.797 -20.977  0.00  0.00    +0.000 C 
ATOM      7  C   UNL     1     -22.653   5.042 -21.857  0.00  0.00    +0.000 C 
ATOM      8  C   UNL     1     -20.707   6.128 -20.663  0.00  0.00    +0.000 C 
ATOM      9  C   UNL     1     -22.302   5.906 -23.082  0.00  0.00    +0.000 C 
ATOM     10  C   UNL     1     -20.459   3.754 -21.584  0.00  0.00    +0.000 C 
ATOM     11  C   UNL     1     -23.330   3.721 -22.260  0.00  0.00    +0.000 C 
ATOM     12  C   UNL     1     -20.512   7.060 -21.870  0.00  0.00    +0.000 C 
ATOM     13  C   UNL     1     -21.182   2.451 -21.911  0.00  0.00    +0.000 C 
ATOM     14  C   UNL     1     -22.365   2.692 -22.842  0.00  0.00    +0.000 C 
ATOM     15  H   UNL     1     -21.337   7.580 -23.627  0.00  0.00    +0.000 HD
BRANCH  12  18
ATOM     16  O   UNL     1     -18.509   5.839 -22.326  0.00  0.00    +0.000 OA
ATOM     17  N   UNL     1     -19.332   7.300 -23.941  0.00  0.00    +0.000 N 
ATOM     18  C   UNL     1     -19.345   6.650 -22.720  0.00  0.00    +0.000 C 
ATOM     19  H   UNL     1     -20.060   7.931 -24.144  0.00  0.00    +0.000 HD
BRANCH  17  20
ATOM     20  C   UNL     1     -18.300   7.098 -24.934  0.00  0.00    +0.000 C 
ATOM     21  C   UNL     1     -16.926   7.285 -24.280  0.00  0.00    +0.000 C 
ATOM     22  C   UNL     1     -18.418   5.679 -25.498  0.00  0.00    +0.000 C 
ATOM     23  C   UNL     1     -18.476   8.122 -26.061  0.00  0.00    +0.000 C 
ENDBRANCH  17  20
ENDBRANCH  12  18
ENDBRANCH   4   5
ENDBRANCH   1   4
BRANCH   1  24
ATOM     24  C   UNL     1     -24.409   9.067 -23.876  0.00  0.00    +0.000 C 
BRANCH  24  26
ATOM     25  O   UNL     1     -24.971  10.033 -26.520  0.00  0.00    +0.000 OA
ATOM     26  N   UNL     1     -24.300   8.319 -25.111  0.00  0.00    +0.000 N 
ATOM     27  C   UNL     1     -24.594   8.877 -26.343  0.00  0.00    +0.000 C 
ATOM     28  H   UNL     1     -24.005   7.380 -25.072  0.00  0.00    +0.000 HD
BRANCH  27  29
ATOM     29  C   UNL     1     -24.458   7.970 -27.512  0.00  0.00    +0.000 A 
ATOM     30  C   UNL     1     -25.569   7.341 -28.072  0.00  0.00    +0.000 A 
ATOM     31  C   UNL     1     -23.188   7.754 -28.048  0.00  0.00    +0.000 A 
ATOM     32  C   UNL     1     -25.411   6.495 -29.170  0.00  0.00    +0.000 A 
ATOM     33  C   UNL     1     -26.934   7.567 -27.503  0.00  0.00    +0.000 C 
ATOM     34  C   UNL     1     -23.030   6.908 -29.146  0.00  0.00    +0.000 A 
ATOM     35  C   UNL     1     -24.141   6.279 -29.707  0.00  0.00    +0.000 A 
BRANCH  32  36
ATOM     36  O   UNL     1     -26.484   5.871 -29.732  0.00  0.00    +0.000 OA
ATOM     37  H   UNL     1     -27.137   6.374 -30.178  0.00  0.00    +0.000 HD
ENDBRANCH  32  36
ENDBRANCH  27  29
ENDBRANCH  24  26
BRANCH  24  38
ATOM     38  C   UNL     1     -25.397   8.383 -22.917  0.00  0.00    +0.000 C 
BRANCH  38  39
ATOM     39  S   UNL     1     -27.022   9.205 -22.905  0.00  0.00    +0.000 S 
BRANCH  39  40
ATOM     40  C   UNL     1     -26.985  10.027 -21.316  0.00  0.00    +0.000 A 
ATOM     41  C   UNL     1     -27.349  11.370 -21.218  0.00  0.00    +0.000 A 
ATOM     42  C   UNL     1     -26.592   9.325 -20.176  0.00  0.00    +0.000 A 
ATOM     43  C   UNL     1     -27.319  12.011 -19.979  0.00  0.00    +0.000 A 
ATOM     44  C   UNL     1     -26.562   9.966 -18.938  0.00  0.00    +0.000 A 
ATOM     45  C   UNL     1     -26.926  11.309 -18.840  0.00  0.00    +0.000 A 
ENDBRANCH  39  40
ENDBRANCH  38  39
ENDBRANCH  24  38
ENDBRANCH   1  24
TORSDOF 12
ENDMDL
MODEL 7
REMARK VINA RESULT:    -7.294      3.266      8.515
REMARK INTER + INTRA:         -13.076
REMARK INTER:                 -11.769
REMARK INTRA:                  -1.307
REMARK UNBOUND:                -1.091
REMARK  Name = 64143
REMARK  16 active torsions:
REMARK  status: ('A' for Active; 'I' for Inactive)
REMARK    1  A    between atoms: S_1  and  C_23
REMARK    2  A    between atoms: S_1  and  C_29
REMARK    3  A    between atoms: O_3  and  C_20
REMARK    4  A    between atoms: O_5  and  C_34
REMARK    5  A    between atoms: N_6  and  C_18
REMARK    6  A    between atoms: N_7  and  C_22
REMARK    7  A    between atoms: N_8  and  C_21
REMARK    8  A    between atoms: C_15  and  C_19
REMARK    9  A    between atoms: C_18  and  C_20
REMARK   10  A    between atoms: C_20  and  C_21
REMARK   11  A    between atoms: C_21  and  C_23
REMARK   12  A    between atoms: C_22  and  C_24
REMARK   13  A    between atoms: C_22  and  C_25
REMARK   14  A    between atoms: C_22  and  C_26
REMARK   15  A    between atoms: C_27  and  C_28
REMARK   16  A    between atoms: C_30  and  C_35
REMARK                            x       y       z     vdW  Elec       q    Type
REMARK                         _______ _______ _______ _____ _____    ______ ____
ROOT
ATOM      1  C   UNL     1     -21.002   6.678 -21.512  0.00  0.00    +0.000 C 
ENDROOT
BRANCH   1   2
ATOM      2  O   UNL     1     -19.827   7.209 -20.897  0.00  0.00    +0.000 OA
ATOM      3  H   UNL     1     -19.065   6.654 -21.123  0.00  0.00    +0.000 HD
ENDBRANCH   1   2
BRANCH   1   4
ATOM      4  C   UNL     1     -22.178   6.844 -20.538  0.00  0.00    +0.000 C 
BRANCH   4   5
ATOM      5  N   UNL     1     -23.105   7.892 -20.964  0.00  0.00    +0.000 N 
ATOM      6  C   UNL     1     -25.481   6.724 -22.362  0.00  0.00    +0.000 C 
ATOM      7  C   UNL     1     -25.277   6.609 -20.840  0.00  0.00    +0.000 C 
ATOM      8  C   UNL     1     -24.129   6.920 -23.071  0.00  0.00    +0.000 C 
ATOM      9  C   UNL     1     -24.416   7.767 -20.307  0.00  0.00    +0.000 C 
ATOM     10  C   UNL     1     -26.504   7.809 -22.737  0.00  0.00    +0.000 C 
ATOM     11  C   UNL     1     -26.619   6.500 -20.097  0.00  0.00    +0.000 C 
ATOM     12  C   UNL     1     -23.204   7.964 -22.427  0.00  0.00    +0.000 C 
ATOM     13  C   UNL     1     -27.828   7.613 -22.007  0.00  0.00    +0.000 C 
ATOM     14  C   UNL     1     -27.627   7.574 -20.496  0.00  0.00    +0.000 C 
ATOM     15  H   UNL     1     -22.722   8.787 -20.657  0.00  0.00    +0.000 HD
BRANCH  12  18
ATOM     16  O   UNL     1     -23.795  10.227 -21.941  0.00  0.00    +0.000 OA
ATOM     17  N   UNL     1     -23.700   9.540 -24.163  0.00  0.00    +0.000 N 
ATOM     18  C   UNL     1     -23.590   9.367 -22.794  0.00  0.00    +0.000 C 
ATOM     19  H   UNL     1     -23.509   8.772 -24.749  0.00  0.00    +0.000 HD
BRANCH  17  20
ATOM     20  C   UNL     1     -24.082  10.793 -24.774  0.00  0.00    +0.000 C 
ATOM     21  C   UNL     1     -25.338  11.332 -24.080  0.00  0.00    +0.000 C 
ATOM     22  C   UNL     1     -22.934  11.796 -24.621  0.00  0.00    +0.000 C 
ATOM     23  C   UNL     1     -24.376  10.563 -26.260  0.00  0.00    +0.000 C 
ENDBRANCH  17  20
ENDBRANCH  12  18
ENDBRANCH   4   5
ENDBRANCH   1   4
BRANCH   1  24
ATOM     24  C   UNL     1     -20.724   5.220 -21.948  0.00  0.00    +0.000 C 
BRANCH  24  26
ATOM     25  O   UNL     1     -19.975   6.975 -24.093  0.00  0.00    +0.000 OA
ATOM     26  N   UNL     1     -21.012   5.037 -23.355  0.00  0.00    +0.000 N 
ATOM     27  C   UNL     1     -20.605   5.945 -24.318  0.00  0.00    +0.000 C 
ATOM     28  H   UNL     1     -21.514   4.239 -23.636  0.00  0.00    +0.000 HD
BRANCH  27  29
ATOM     29  C   UNL     1     -21.003   5.627 -25.713  0.00  0.00    +0.000 A 
ATOM     30  C   UNL     1     -20.141   4.948 -26.574  0.00  0.00    +0.000 A 
ATOM     31  C   UNL     1     -22.265   6.022 -26.158  0.00  0.00    +0.000 A 
ATOM     32  C   UNL     1     -20.541   4.663 -27.880  0.00  0.00    +0.000 A 
ATOM     33  C   UNL     1     -18.785   4.522 -26.107  0.00  0.00    +0.000 C 
ATOM     34  C   UNL     1     -22.665   5.737 -27.463  0.00  0.00    +0.000 A 
ATOM     35  C   UNL     1     -21.804   5.058 -28.324  0.00  0.00    +0.000 A 
BRANCH  32  36
ATOM     36  O   UNL     1     -19.714   4.001 -28.736  0.00  0.00    +0.000 OA
ATOM     37  H   UNL     1     -20.072   3.524 -29.459  0.00  0.00    +0.000 HD
ENDBRANCH  32  36
ENDBRANCH  27  29
ENDBRANCH  24  26
BRANCH  24  38
ATOM     38  C   UNL     1     -19.271   4.822 -21.639  0.00  0.00    +0.000 C 
BRANCH  38  39
ATOM     39  S   UNL     1     -18.738   3.371 -22.602  0.00  0.00    +0.000 S 
BRANCH  39  40
ATOM     40  C   UNL     1     -16.993   3.708 -22.802  0.00  0.00    +0.000 A 
ATOM     41  C   UNL     1     -16.420   4.813 -22.173  0.00  0.00    +0.000 A 
ATOM     42  C   UNL     1     -16.205   2.864 -23.586  0.00  0.00    +0.000 A 
ATOM     43  C   UNL     1     -15.058   5.075 -22.329  0.00  0.00    +0.000 A 
ATOM     44  C   UNL     1     -14.844   3.127 -23.742  0.00  0.00    +0.000 A 
ATOM     45  C   UNL     1     -14.271   4.232 -23.113  0.00  0.00    +0.000 A 
ENDBRANCH  39  40
ENDBRANCH  38  39
ENDBRANCH  24  38
ENDBRANCH   1  24
TORSDOF 12
ENDMDL
MODEL 8
REMARK VINA RESULT:    -7.290      3.870      5.920
REMARK INTER + INTRA:         -13.069
REMARK INTER:                 -11.341
REMARK INTRA:                  -1.728
REMARK UNBOUND:                -1.091
REMARK  Name = 64143
REMARK  16 active torsions:
REMARK  status: ('A' for Active; 'I' for Inactive)
REMARK    1  A    between atoms: S_1  and  C_23
REMARK    2  A    between atoms: S_1  and  C_29
REMARK    3  A    between atoms: O_3  and  C_20
REMARK    4  A    between atoms: O_5  and  C_34
REMARK    5  A    between atoms: N_6  and  C_18
REMARK    6  A    between atoms: N_7  and  C_22
REMARK    7  A    between atoms: N_8  and  C_21
REMARK    8  A    between atoms: C_15  and  C_19
REMARK    9  A    between atoms: C_18  and  C_20
REMARK   10  A    between atoms: C_20  and  C_21
REMARK   11  A    between atoms: C_21  and  C_23
REMARK   12  A    between atoms: C_22  and  C_24
REMARK   13  A    between atoms: C_22  and  C_25
REMARK   14  A    between atoms: C_22  and  C_26
REMARK   15  A    between atoms: C_27  and  C_28
REMARK   16  A    between atoms: C_30  and  C_35
REMARK                            x       y       z     vdW  Elec       q    Type
REMARK                         _______ _______ _______ _____ _____    ______ ____
ROOT
ATOM      1  C   UNL     1     -22.419   5.947 -28.059  0.00  0.00    +0.000 C 
ENDROOT
BRANCH   1   2
ATOM      2  O   UNL     1     -21.877   5.200 -29.149  0.00  0.00    +0.000 OA
ATOM      3  H   UNL     1     -20.910   5.188 -29.085  0.00  0.00    +0.000 HD
ENDBRANCH   1   2
BRANCH   1   4
ATOM      4  C   UNL     1     -22.219   5.140 -26.768  0.00  0.00    +0.000 C 
BRANCH   4   5
ATOM      5  N   UNL     1     -21.749   5.974 -25.661  0.00  0.00    +0.000 N 
ATOM      6  C   UNL     1     -18.981   5.195 -24.828  0.00  0.00    +0.000 C 
ATOM      7  C   UNL     1     -19.269   5.949 -26.139  0.00  0.00    +0.000 C 
ATOM      8  C   UNL     1     -20.224   4.405 -24.380  0.00  0.00    +0.000 C 
ATOM      9  C   UNL     1     -20.568   6.768 -26.035  0.00  0.00    +0.000 C 
ATOM     10  C   UNL     1     -18.444   6.121 -23.724  0.00  0.00    +0.000 C 
ATOM     11  C   UNL     1     -18.074   6.817 -26.566  0.00  0.00    +0.000 C 
ATOM     12  C   UNL     1     -21.546   5.185 -24.440  0.00  0.00    +0.000 C 
ATOM     13  C   UNL     1     -17.228   6.914 -24.194  0.00  0.00    +0.000 C 
ATOM     14  C   UNL     1     -17.543   7.715 -25.452  0.00  0.00    +0.000 C 
ATOM     15  H   UNL     1     -22.485   6.648 -25.449  0.00  0.00    +0.000 HD
BRANCH  12  18
ATOM     16  O   UNL     1     -22.181   7.235 -23.389  0.00  0.00    +0.000 OA
ATOM     17  N   UNL     1     -21.276   5.532 -22.084  0.00  0.00    +0.000 N 
ATOM     18  C   UNL     1     -21.716   6.103 -23.265  0.00  0.00    +0.000 C 
ATOM     19  H   UNL     1     -20.923   4.614 -22.112  0.00  0.00    +0.000 HD
BRANCH  17  20
ATOM     20  C   UNL     1     -21.310   6.219 -20.813  0.00  0.00    +0.000 C 
ATOM     21  C   UNL     1     -20.667   5.332 -19.740  0.00  0.00    +0.000 C 
ATOM     22  C   UNL     1     -20.532   7.534 -20.933  0.00  0.00    +0.000 C 
ATOM     23  C   UNL     1     -22.766   6.510 -20.433  0.00  0.00    +0.000 C 
ENDBRANCH  17  20
ENDBRANCH  12  18
ENDBRANCH   4   5
ENDBRANCH   1   4
BRANCH   1  24
ATOM     24  C   UNL     1     -23.890   6.303 -28.378  0.00  0.00    +0.000 C 
BRANCH  24  26
ATOM     25  O   UNL     1     -24.619   7.375 -25.818  0.00  0.00    +0.000 OA
ATOM     26  N   UNL     1     -24.165   7.690 -28.069  0.00  0.00    +0.000 N 
ATOM     27  C   UNL     1     -24.510   8.110 -26.796  0.00  0.00    +0.000 C 
ATOM     28  H   UNL     1     -24.103   8.358 -28.790  0.00  0.00    +0.000 HD
BRANCH  27  29
ATOM     29  C   UNL     1     -24.788   9.562 -26.648  0.00  0.00    +0.000 A 
ATOM     30  C   UNL     1     -23.785  10.456 -26.275  0.00  0.00    +0.000 A 
ATOM     31  C   UNL     1     -26.082  10.026 -26.889  0.00  0.00    +0.000 A 
ATOM     32  C   UNL     1     -24.074  11.815 -26.144  0.00  0.00    +0.000 A 
ATOM     33  C   UNL     1     -22.395   9.968 -26.014  0.00  0.00    +0.000 C 
ATOM     34  C   UNL     1     -26.371  11.383 -26.759  0.00  0.00    +0.000 A 
ATOM     35  C   UNL     1     -25.368  12.278 -26.387  0.00  0.00    +0.000 A 
BRANCH  32  36
ATOM     36  O   UNL     1     -23.108  12.703 -25.781  0.00  0.00    +0.000 OA
ATOM     37  H   UNL     1     -22.991  13.494 -26.272  0.00  0.00    +0.000 HD
ENDBRANCH  32  36
ENDBRANCH  27  29
ENDBRANCH  24  26
BRANCH  24  38
ATOM     38  C   UNL     1     -24.221   6.002 -29.849  0.00  0.00    +0.000 C 
BRANCH  38  39
ATOM     39  S   UNL     1     -25.325   4.563 -30.022  0.00  0.00    +0.000 S 
BRANCH  39  40
ATOM     40  C   UNL     1     -26.736   5.303 -30.835  0.00  0.00    +0.000 A 
ATOM     41  C   UNL     1     -27.644   4.499 -31.525  0.00  0.00    +0.000 A 
ATOM     42  C   UNL     1     -26.930   6.683 -30.779  0.00  0.00    +0.000 A 
ATOM     43  C   UNL     1     -28.744   5.077 -32.159  0.00  0.00    +0.000 A 
ATOM     44  C   UNL     1     -28.030   7.260 -31.413  0.00  0.00    +0.000 A 
ATOM     45  C   UNL     1     -28.937   6.456 -32.103  0.00  0.00    +0.000 A 
ENDBRANCH  39  40
ENDBRANCH  38  39
ENDBRANCH  24  38
ENDBRANCH   1  24
TORSDOF 12
ENDMDL
MODEL 9
REMARK VINA RESULT:    -7.195      3.071      7.835
REMARK INTER + INTRA:         -12.913
REMARK INTER:                 -10.242
REMARK INTRA:                  -2.670
REMARK UNBOUND:                -1.091
REMARK  Name = 64143
REMARK  16 active torsions:
REMARK  status: ('A' for Active; 'I' for Inactive)
REMARK    1  A    between atoms: S_1  and  C_23
REMARK    2  A    between atoms: S_1  and  C_29
REMARK    3  A    between atoms: O_3  and  C_20
REMARK    4  A    between atoms: O_5  and  C_34
REMARK    5  A    between atoms: N_6  and  C_18
REMARK    6  A    between atoms: N_7  and  C_22
REMARK    7  A    between atoms: N_8  and  C_21
REMARK    8  A    between atoms: C_15  and  C_19
REMARK    9  A    between atoms: C_18  and  C_20
REMARK   10  A    between atoms: C_20  and  C_21
REMARK   11  A    between atoms: C_21  and  C_23
REMARK   12  A    between atoms: C_22  and  C_24
REMARK   13  A    between atoms: C_22  and  C_25
REMARK   14  A    between atoms: C_22  and  C_26
REMARK   15  A    between atoms: C_27  and  C_28
REMARK   16  A    between atoms: C_30  and  C_35
REMARK                            x       y       z     vdW  Elec       q    Type
REMARK                         _______ _______ _______ _____ _____    ______ ____
ROOT
ATOM      1  C   UNL     1     -20.563   7.163 -21.743  0.00  0.00    +0.000 C 
ENDROOT
BRANCH   1   2
ATOM      2  O   UNL     1     -19.659   7.989 -21.007  0.00  0.00    +0.000 OA
ATOM      3  H   UNL     1     -18.820   7.519 -20.884  0.00  0.00    +0.000 HD
ENDBRANCH   1   2
BRANCH   1   4
ATOM      4  C   UNL     1     -21.837   6.972 -20.907  0.00  0.00    +0.000 C 
BRANCH   4   5
ATOM      5  N   UNL     1     -22.875   7.945 -21.250  0.00  0.00    +0.000 N 
ATOM      6  C   UNL     1     -25.262   6.594 -22.448  0.00  0.00    +0.000 C 
ATOM      7  C   UNL     1     -24.924   6.498 -20.949  0.00  0.00    +0.000 C 
ATOM      8  C   UNL     1     -23.993   6.891 -23.267  0.00  0.00    +0.000 C 
ATOM      9  C   UNL     1     -24.112   7.721 -20.485  0.00  0.00    +0.000 C 
ATOM     10  C   UNL     1     -26.394   7.596 -22.732  0.00  0.00    +0.000 C 
ATOM     11  C   UNL     1     -26.186   6.288 -20.097  0.00  0.00    +0.000 C 
ATOM     12  C   UNL     1     -23.101   8.005 -22.699  0.00  0.00    +0.000 C 
ATOM     13  C   UNL     1     -27.633   7.300 -21.894  0.00  0.00    +0.000 C 
ATOM     14  C   UNL     1     -27.303   7.281 -20.406  0.00  0.00    +0.000 C 
ATOM     15  H   UNL     1     -22.537   8.867 -20.972  0.00  0.00    +0.000 HD
BRANCH  12  18
ATOM     16  O   UNL     1     -23.693  10.261 -22.179  0.00  0.00    +0.000 OA
ATOM     17  N   UNL     1     -24.018   9.482 -24.349  0.00  0.00    +0.000 N 
ATOM     18  C   UNL     1     -23.623   9.373 -23.027  0.00  0.00    +0.000 C 
ATOM     19  H   UNL     1     -23.912   8.698 -24.935  0.00  0.00    +0.000 HD
BRANCH  17  20
ATOM     20  C   UNL     1     -24.578  10.690 -24.910  0.00  0.00    +0.000 C 
ATOM     21  C   UNL     1     -25.019  10.420 -26.354  0.00  0.00    +0.000 C 
ATOM     22  C   UNL     1     -25.785  11.120 -24.070  0.00  0.00    +0.000 C 
ATOM     23  C   UNL     1     -23.516  11.795 -24.896  0.00  0.00    +0.000 C 
ENDBRANCH  17  20
ENDBRANCH  12  18
ENDBRANCH   4   5
ENDBRANCH   1   4
BRANCH   1  24
ATOM     24  C   UNL     1     -19.841   5.852 -22.131  0.00  0.00    +0.000 C 
BRANCH  24  26
ATOM     25  O   UNL     1     -20.043   2.989 -22.122  0.00  0.00    +0.000 OA
ATOM     26  N   UNL     1     -20.670   5.041 -22.998  0.00  0.00    +0.000 N 
ATOM     27  C   UNL     1     -20.698   3.660 -22.915  0.00  0.00    +0.000 C 
ATOM     28  H   UNL     1     -21.234   5.489 -23.669  0.00  0.00    +0.000 HD
BRANCH  27  29
ATOM     29  C   UNL     1     -21.580   2.972 -23.893  0.00  0.00    +0.000 A 
ATOM     30  C   UNL     1     -22.919   2.713 -23.603  0.00  0.00    +0.000 A 
ATOM     31  C   UNL     1     -21.044   2.583 -25.121  0.00  0.00    +0.000 A 
ATOM     32  C   UNL     1     -23.724   2.066 -24.541  0.00  0.00    +0.000 A 
ATOM     33  C   UNL     1     -23.502   3.126 -22.288  0.00  0.00    +0.000 C 
ATOM     34  C   UNL     1     -21.848   1.936 -26.059  0.00  0.00    +0.000 A 
ATOM     35  C   UNL     1     -23.188   1.678 -25.769  0.00  0.00    +0.000 A 
BRANCH  32  36
ATOM     36  O   UNL     1     -25.034   1.804 -24.276  0.00  0.00    +0.000 OA
ATOM     37  H   UNL     1     -25.263   1.192 -23.604  0.00  0.00    +0.000 HD
ENDBRANCH  32  36
ENDBRANCH  27  29
ENDBRANCH  24  26
BRANCH  24  38
ATOM     38  C   UNL     1     -18.488   6.147 -22.799  0.00  0.00    +0.000 C 
BRANCH  38  39
ATOM     39  S   UNL     1     -18.687   6.880 -24.455  0.00  0.00    +0.000 S 
BRANCH  39  40
ATOM     40  C   UNL     1     -18.402   5.458 -25.502  0.00  0.00    +0.000 A 
ATOM     41  C   UNL     1     -17.686   4.365 -25.014  0.00  0.00    +0.000 A 
ATOM     42  C   UNL     1     -18.897   5.442 -26.806  0.00  0.00    +0.000 A 
ATOM     43  C   UNL     1     -17.463   3.257 -25.831  0.00  0.00    +0.000 A 
ATOM     44  C   UNL     1     -18.674   4.334 -27.623  0.00  0.00    +0.000 A 
ATOM     45  C   UNL     1     -17.958   3.241 -27.135  0.00  0.00    +0.000 A 
ENDBRANCH  39  40
ENDBRANCH  38  39
ENDBRANCH  24  38
ENDBRANCH   1  24
TORSDOF 12
ENDMDL
