MODEL 1
REMARK VINA RESULT:    -5.927      0.000      0.000
REMARK INTER + INTRA:          -8.328
REMARK INTER:                  -7.313
REMARK INTRA:                  -1.015
REMARK UNBOUND:                -1.015
REMARK  Name = 41684
REMARK  5 active torsions:
REMARK  status: ('A' for Active; 'I' for Inactive)
REMARK    1  A    between atoms: O_2  and  C_11
REMARK    2  A    between atoms: O_2  and  C_20
REMARK    3  A    between atoms: N_9  and  C_18
REMARK    4  A    between atoms: C_10  and  C_12
REMARK    5  A    between atoms: C_20  and  C_21
REMARK                            x       y       z     vdW  Elec       q    Type
REMARK                         _______ _______ _______ _____ _____    ______ ____
ROOT
ATOM      1  S   UNL     1     -21.155   5.124 -21.044  0.00  0.00    +0.000 S 
ATOM      2  O   UNL     1     -17.647   7.076 -23.367  0.00  0.00    +0.000 OA
ATOM      3  N   UNL     1     -18.821   5.405 -22.202  0.00  0.00    +0.000 N 
ATOM      4  N   UNL     1     -20.341   7.275 -22.226  0.00  0.00    +0.000 NA
ATOM      5  C   UNL     1     -17.725   5.931 -22.897  0.00  0.00    +0.000 C 
ATOM      6  C   UNL     1     -20.021   6.058 -21.908  0.00  0.00    +0.000 A 
ATOM      7  C   UNL     1     -22.215   6.473 -21.077  0.00  0.00    +0.000 A 
ATOM      8  C   UNL     1     -21.613   7.518 -21.745  0.00  0.00    +0.000 A 
ATOM      9  H   UNL     1     -18.737   4.476 -21.888  0.00  0.00    +0.000 HD
ENDROOT
BRANCH   5  10
ATOM     10  C   UNL     1     -16.584   5.038 -23.038  0.00  0.00    +0.000 A 
ATOM     11  C   UNL     1     -16.612   3.975 -23.942  0.00  0.00    +0.000 A 
ATOM     12  C   UNL     1     -15.450   5.257 -22.255  0.00  0.00    +0.000 A 
ATOM     13  C   UNL     1     -15.508   3.130 -24.061  0.00  0.00    +0.000 A 
ATOM     14  C   UNL     1     -14.346   4.412 -22.374  0.00  0.00    +0.000 A 
ATOM     15  C   UNL     1     -14.375   3.350 -23.277  0.00  0.00    +0.000 A 
BRANCH  11  16
ATOM     16  O   UNL     1     -17.709   3.745 -24.716  0.00  0.00    +0.000 OA
BRANCH  16  18
ATOM     17  O   UNL     1     -18.911   2.359 -23.261  0.00  0.00    +0.000 OA
ATOM     18  C   UNL     1     -18.429   2.593 -24.362  0.00  0.00    +0.000 C 
ATOM     19  C   UNL     1     -18.525   1.667 -25.538  0.00  0.00    +0.000 C 
ENDBRANCH  16  18
ENDBRANCH  11  16
ENDBRANCH   5  10
BRANCH   7  22
ATOM     20  O   UNL     1     -24.439   5.877 -21.115  0.00  0.00    +0.000 OA
ATOM     21  O   UNL     1     -23.640   6.842 -19.306  0.00  0.00    +0.000 OA
ATOM     22  N   UNL     1     -23.477   6.394 -20.478  0.00  0.00    +0.000 N 
ENDBRANCH   7  22
TORSDOF 4
ENDMDL
MODEL 2
REMARK VINA RESULT:    -5.362      1.474      2.874
REMARK INTER + INTRA:          -7.631
REMARK INTER:                  -6.904
REMARK INTRA:                  -0.727
REMARK UNBOUND:                -1.015
REMARK  Name = 41684
REMARK  5 active torsions:
REMARK  status: ('A' for Active; 'I' for Inactive)
REMARK    1  A    between atoms: O_2  and  C_11
REMARK    2  A    between atoms: O_2  and  C_20
REMARK    3  A    between atoms: N_9  and  C_18
REMARK    4  A    between atoms: C_10  and  C_12
REMARK    5  A    between atoms: C_20  and  C_21
REMARK                            x       y       z     vdW  Elec       q    Type
REMARK                         _______ _______ _______ _____ _____    ______ ____
ROOT
ATOM      1  S   UNL     1     -21.080   5.790 -20.908  0.00  0.00    +0.000 S 
ATOM      2  O   UNL     1     -19.139   3.708 -24.571  0.00  0.00    +0.000 OA
ATOM      3  N   UNL     1     -19.244   4.769 -22.475  0.00  0.00    +0.000 N 
ATOM      4  N   UNL     1     -21.538   4.702 -23.209  0.00  0.00    +0.000 NA
ATOM      5  C   UNL     1     -18.592   4.147 -23.547  0.00  0.00    +0.000 C 
ATOM      6  C   UNL     1     -20.615   5.010 -22.350  0.00  0.00    +0.000 A 
ATOM      7  C   UNL     1     -22.704   5.728 -21.458  0.00  0.00    +0.000 A 
ATOM      8  C   UNL     1     -22.751   5.117 -22.693  0.00  0.00    +0.000 A 
ATOM      9  H   UNL     1     -18.675   5.067 -21.729  0.00  0.00    +0.000 HD
ENDROOT
BRANCH   5  10
ATOM     10  C   UNL     1     -17.144   4.051 -23.431  0.00  0.00    +0.000 A 
ATOM     11  C   UNL     1     -16.364   5.190 -23.225  0.00  0.00    +0.000 A 
ATOM     12  C   UNL     1     -16.538   2.798 -23.528  0.00  0.00    +0.000 A 
ATOM     13  C   UNL     1     -14.978   5.075 -23.117  0.00  0.00    +0.000 A 
ATOM     14  C   UNL     1     -15.152   2.684 -23.420  0.00  0.00    +0.000 A 
ATOM     15  C   UNL     1     -14.372   3.822 -23.214  0.00  0.00    +0.000 A 
BRANCH  11  16
ATOM     16  O   UNL     1     -16.938   6.421 -23.127  0.00  0.00    +0.000 OA
BRANCH  16  18
ATOM     17  O   UNL     1     -15.639   7.996 -24.274  0.00  0.00    +0.000 OA
ATOM     18  C   UNL     1     -16.630   7.282 -24.192  0.00  0.00    +0.000 C 
ATOM     19  C   UNL     1     -17.705   7.211 -25.235  0.00  0.00    +0.000 C 
ENDBRANCH  16  18
ENDBRANCH  11  16
ENDBRANCH   5  10
BRANCH   7  22
ATOM     20  O   UNL     1     -24.934   6.147 -21.065  0.00  0.00    +0.000 OA
ATOM     21  O   UNL     1     -23.459   6.830 -19.583  0.00  0.00    +0.000 OA
ATOM     22  N   UNL     1     -23.736   6.254 -20.674  0.00  0.00    +0.000 N 
ENDBRANCH   7  22
TORSDOF 4
ENDMDL
MODEL 3
REMARK VINA RESULT:    -5.299      3.360      4.379
REMARK INTER + INTRA:          -7.553
REMARK INTER:                  -6.556
REMARK INTRA:                  -0.997
REMARK UNBOUND:                -1.015
REMARK  Name = 41684
REMARK  5 active torsions:
REMARK  status: ('A' for Active; 'I' for Inactive)
REMARK    1  A    between atoms: O_2  and  C_11
REMARK    2  A    between atoms: O_2  and  C_20
REMARK    3  A    between atoms: N_9  and  C_18
REMARK    4  A    between atoms: C_10  and  C_12
REMARK    5  A    between atoms: C_20  and  C_21
REMARK                            x       y       z     vdW  Elec       q    Type
REMARK                         _______ _______ _______ _____ _____    ______ ____
ROOT
ATOM      1  S   UNL     1     -23.495   8.561 -21.637  0.00  0.00    +0.000 S 
ATOM      2  O   UNL     1     -19.873   5.670 -21.825  0.00  0.00    +0.000 OA
ATOM      3  N   UNL     1     -21.276   7.443 -22.470  0.00  0.00    +0.000 N 
ATOM      4  N   UNL     1     -22.338   6.546 -20.502  0.00  0.00    +0.000 NA
ATOM      5  C   UNL     1     -20.159   6.606 -22.587  0.00  0.00    +0.000 C 
ATOM      6  C   UNL     1     -22.269   7.387 -21.488  0.00  0.00    +0.000 A 
ATOM      7  C   UNL     1     -24.228   7.900 -20.234  0.00  0.00    +0.000 A 
ATOM      8  C   UNL     1     -23.474   6.842 -19.772  0.00  0.00    +0.000 A 
ATOM      9  H   UNL     1     -21.371   8.146 -23.153  0.00  0.00    +0.000 HD
ENDROOT
BRANCH   5  10
ATOM     10  C   UNL     1     -19.295   6.869 -23.729  0.00  0.00    +0.000 A 
ATOM     11  C   UNL     1     -19.808   6.888 -25.026  0.00  0.00    +0.000 A 
ATOM     12  C   UNL     1     -17.937   7.103 -23.513  0.00  0.00    +0.000 A 
ATOM     13  C   UNL     1     -18.963   7.141 -26.107  0.00  0.00    +0.000 A 
ATOM     14  C   UNL     1     -17.092   7.356 -24.593  0.00  0.00    +0.000 A 
ATOM     15  C   UNL     1     -17.605   7.375 -25.890  0.00  0.00    +0.000 A 
BRANCH  11  16
ATOM     16  O   UNL     1     -21.131   6.662 -25.258  0.00  0.00    +0.000 OA
BRANCH  16  18
ATOM     17  O   UNL     1     -21.888   8.877 -25.195  0.00  0.00    +0.000 OA
ATOM     18  C   UNL     1     -21.827   7.782 -25.740  0.00  0.00    +0.000 C 
ATOM     19  C   UNL     1     -22.502   7.447 -27.037  0.00  0.00    +0.000 C 
ENDBRANCH  16  18
ENDBRANCH  11  16
ENDBRANCH   5  10
BRANCH   7  22
ATOM     20  O   UNL     1     -25.646   9.680 -19.884  0.00  0.00    +0.000 OA
ATOM     21  O   UNL     1     -26.241   7.699 -19.135  0.00  0.00    +0.000 OA
ATOM     22  N   UNL     1     -25.415   8.446 -19.733  0.00  0.00    +0.000 N 
ENDBRANCH   7  22
TORSDOF 4
ENDMDL
MODEL 4
REMARK VINA RESULT:    -5.286      2.449      3.893
REMARK INTER + INTRA:          -7.538
REMARK INTER:                  -6.547
REMARK INTRA:                  -0.991
REMARK UNBOUND:                -1.015
REMARK  Name = 41684
REMARK  5 active torsions:
REMARK  status: ('A' for Active; 'I' for Inactive)
REMARK    1  A    between atoms: O_2  and  C_11
REMARK    2  A    between atoms: O_2  and  C_20
REMARK    3  A    between atoms: N_9  and  C_18
REMARK    4  A    between atoms: C_10  and  C_12
REMARK    5  A    between atoms: C_20  and  C_21
REMARK                            x       y       z     vdW  Elec       q    Type
REMARK                         _______ _______ _______ _____ _____    ______ ____
ROOT
ATOM      1  S   UNL     1     -22.643   7.800 -22.355  0.00  0.00    +0.000 S 
ATOM      2  O   UNL     1     -21.109   3.922 -20.325  0.00  0.00    +0.000 OA
ATOM      3  N   UNL     1     -21.294   5.585 -21.975  0.00  0.00    +0.000 N 
ATOM      4  N   UNL     1     -22.838   6.290 -20.265  0.00  0.00    +0.000 NA
ATOM      5  C   UNL     1     -20.786   4.404 -21.421  0.00  0.00    +0.000 C 
ATOM      6  C   UNL     1     -22.247   6.438 -21.410  0.00  0.00    +0.000 A 
ATOM      7  C   UNL     1     -23.735   8.275 -21.119  0.00  0.00    +0.000 A 
ATOM      8  C   UNL     1     -23.701   7.354 -20.093  0.00  0.00    +0.000 A 
ATOM      9  H   UNL     1     -20.941   5.843 -22.858  0.00  0.00    +0.000 HD
ENDROOT
BRANCH   5  10
ATOM     10  C   UNL     1     -19.819   3.690 -22.242  0.00  0.00    +0.000 A 
ATOM     11  C   UNL     1     -18.622   4.295 -22.629  0.00  0.00    +0.000 A 
ATOM     12  C   UNL     1     -20.101   2.384 -22.641  0.00  0.00    +0.000 A 
ATOM     13  C   UNL     1     -17.709   3.594 -23.416  0.00  0.00    +0.000 A 
ATOM     14  C   UNL     1     -19.187   1.682 -23.428  0.00  0.00    +0.000 A 
ATOM     15  C   UNL     1     -17.992   2.287 -23.815  0.00  0.00    +0.000 A 
BRANCH  11  16
ATOM     16  O   UNL     1     -18.329   5.570 -22.249  0.00  0.00    +0.000 OA
BRANCH  16  18
ATOM     17  O   UNL     1     -19.234   6.826 -24.005  0.00  0.00    +0.000 OA
ATOM     18  C   UNL     1     -18.284   6.488 -23.310  0.00  0.00    +0.000 C 
ATOM     19  C   UNL     1     -16.887   7.005 -23.483  0.00  0.00    +0.000 C 
ENDBRANCH  16  18
ENDBRANCH  11  16
ENDBRANCH   5  10
BRANCH   7  22
ATOM     20  O   UNL     1     -24.199  10.272 -22.166  0.00  0.00    +0.000 OA
ATOM     21  O   UNL     1     -25.451   9.663 -20.462  0.00  0.00    +0.000 OA
ATOM     22  N   UNL     1     -24.489   9.446 -21.254  0.00  0.00    +0.000 N 
ENDBRANCH   7  22
TORSDOF 4
ENDMDL
MODEL 5
REMARK VINA RESULT:    -5.098      9.574     13.956
REMARK INTER + INTRA:          -7.306
REMARK INTER:                  -6.742
REMARK INTRA:                  -0.564
REMARK UNBOUND:                -1.015
REMARK  Name = 41684
REMARK  5 active torsions:
REMARK  status: ('A' for Active; 'I' for Inactive)
REMARK    1  A    between atoms: O_2  and  C_11
REMARK    2  A    between atoms: O_2  and  C_20
REMARK    3  A    between atoms: N_9  and  C_18
REMARK    4  A    between atoms: C_10  and  C_12
REMARK    5  A    between atoms: C_20  and  C_21
REMARK                            x       y       z     vdW  Elec       q    Type
REMARK                         _______ _______ _______ _____ _____    ______ ____
ROOT
ATOM      1  S   UNL     1     -26.152  10.275 -18.929  0.00  0.00    +0.000 S 
ATOM      2  O   UNL     1     -28.402  14.330 -18.977  0.00  0.00    +0.000 OA
ATOM      3  N   UNL     1     -27.000  12.631 -18.157  0.00  0.00    +0.000 N 
ATOM      4  N   UNL     1     -27.759  11.784 -20.281  0.00  0.00    +0.000 NA
ATOM      5  C   UNL     1     -27.648  13.871 -18.105  0.00  0.00    +0.000 C 
ATOM      6  C   UNL     1     -27.073  11.686 -19.183  0.00  0.00    +0.000 A 
ATOM      7  C   UNL     1     -26.710   9.698 -20.446  0.00  0.00    +0.000 A 
ATOM      8  C   UNL     1     -27.549  10.632 -21.015  0.00  0.00    +0.000 A 
ATOM      9  H   UNL     1     -26.431  12.401 -17.387  0.00  0.00    +0.000 HD
ENDROOT
BRANCH   5  10
ATOM     10  C   UNL     1     -27.419  14.650 -16.897  0.00  0.00    +0.000 A 
ATOM     11  C   UNL     1     -26.681  15.834 -16.937  0.00  0.00    +0.000 A 
ATOM     12  C   UNL     1     -27.949  14.199 -15.688  0.00  0.00    +0.000 A 
ATOM     13  C   UNL     1     -26.472  16.566 -15.768  0.00  0.00    +0.000 A 
ATOM     14  C   UNL     1     -27.740  14.931 -14.519  0.00  0.00    +0.000 A 
ATOM     15  C   UNL     1     -27.002  16.114 -14.559  0.00  0.00    +0.000 A 
BRANCH  11  16
ATOM     16  O   UNL     1     -26.156  16.291 -18.108  0.00  0.00    +0.000 OA
BRANCH  16  18
ATOM     17  O   UNL     1     -27.965  17.650 -18.712  0.00  0.00    +0.000 OA
ATOM     18  C   UNL     1     -26.761  17.464 -18.587  0.00  0.00    +0.000 C 
ATOM     19  C   UNL     1     -25.711  18.477 -18.935  0.00  0.00    +0.000 C 
ENDBRANCH  16  18
ENDBRANCH  11  16
ENDBRANCH   5  10
BRANCH   7  22
ATOM     20  O   UNL     1     -25.111   8.295 -21.327  0.00  0.00    +0.000 OA
ATOM     21  O   UNL     1     -27.120   7.487 -20.940  0.00  0.00    +0.000 OA
ATOM     22  N   UNL     1     -26.299   8.448 -20.922  0.00  0.00    +0.000 N 
ENDBRANCH   7  22
TORSDOF 4
ENDMDL
MODEL 6
REMARK VINA RESULT:    -5.081      2.151      3.245
REMARK INTER + INTRA:          -7.285
REMARK INTER:                  -6.488
REMARK INTRA:                  -0.797
REMARK UNBOUND:                -1.015
REMARK  Name = 41684
REMARK  5 active torsions:
REMARK  status: ('A' for Active; 'I' for Inactive)
REMARK    1  A    between atoms: O_2  and  C_11
REMARK    2  A    between atoms: O_2  and  C_20
REMARK    3  A    between atoms: N_9  and  C_18
REMARK    4  A    between atoms: C_10  and  C_12
REMARK    5  A    between atoms: C_20  and  C_21
REMARK                            x       y       z     vdW  Elec       q    Type
REMARK                         _______ _______ _______ _____ _____    ______ ____
ROOT
ATOM      1  S   UNL     1     -22.708   6.798 -20.839  0.00  0.00    +0.000 S 
ATOM      2  O   UNL     1     -20.199   3.896 -23.445  0.00  0.00    +0.000 OA
ATOM      3  N   UNL     1     -20.628   5.676 -21.970  0.00  0.00    +0.000 N 
ATOM      4  N   UNL     1     -22.812   4.779 -22.451  0.00  0.00    +0.000 NA
ATOM      5  C   UNL     1     -19.809   4.835 -22.734  0.00  0.00    +0.000 C 
ATOM      6  C   UNL     1     -22.020   5.621 -21.861  0.00  0.00    +0.000 A 
ATOM      7  C   UNL     1     -24.249   6.138 -21.200  0.00  0.00    +0.000 A 
ATOM      8  C   UNL     1     -24.106   5.076 -22.068  0.00  0.00    +0.000 A 
ATOM      9  H   UNL     1     -20.173   6.380 -21.454  0.00  0.00    +0.000 HD
ENDROOT
BRANCH   5  10
ATOM     10  C   UNL     1     -18.385   5.134 -22.689  0.00  0.00    +0.000 A 
ATOM     11  C   UNL     1     -17.878   6.293 -23.278  0.00  0.00    +0.000 A 
ATOM     12  C   UNL     1     -17.525   4.245 -22.045  0.00  0.00    +0.000 A 
ATOM     13  C   UNL     1     -16.510   6.561 -23.224  0.00  0.00    +0.000 A 
ATOM     14  C   UNL     1     -16.157   4.513 -21.991  0.00  0.00    +0.000 A 
ATOM     15  C   UNL     1     -15.650   5.671 -22.580  0.00  0.00    +0.000 A 
BRANCH  11  16
ATOM     16  O   UNL     1     -18.702   7.174 -23.910  0.00  0.00    +0.000 OA
BRANCH  16  18
ATOM     17  O   UNL     1     -17.858   8.435 -25.694  0.00  0.00    +0.000 OA
ATOM     18  C   UNL     1     -18.364   7.411 -25.253  0.00  0.00    +0.000 C 
ATOM     19  C   UNL     1     -18.720   6.218 -26.089  0.00  0.00    +0.000 C 
ENDBRANCH  16  18
ENDBRANCH  11  16
ENDBRANCH   5  10
BRANCH   7  22
ATOM     20  O   UNL     1     -26.355   5.926 -20.293  0.00  0.00    +0.000 OA
ATOM     21  O   UNL     1     -25.483   7.938 -20.465  0.00  0.00    +0.000 OA
ATOM     22  N   UNL     1     -25.405   6.687 -20.632  0.00  0.00    +0.000 N 
ENDBRANCH   7  22
TORSDOF 4
ENDMDL
MODEL 7
REMARK VINA RESULT:    -5.076      5.948      8.258
REMARK INTER + INTRA:          -7.279
REMARK INTER:                  -6.686
REMARK INTRA:                  -0.593
REMARK UNBOUND:                -1.015
REMARK  Name = 41684
REMARK  5 active torsions:
REMARK  status: ('A' for Active; 'I' for Inactive)
REMARK    1  A    between atoms: O_2  and  C_11
REMARK    2  A    between atoms: O_2  and  C_20
REMARK    3  A    between atoms: N_9  and  C_18
REMARK    4  A    between atoms: C_10  and  C_12
REMARK    5  A    between atoms: C_20  and  C_21
REMARK                            x       y       z     vdW  Elec       q    Type
REMARK                         _______ _______ _______ _____ _____    ______ ____
ROOT
ATOM      1  S   UNL     1     -26.482  11.020 -18.602  0.00  0.00    +0.000 S 
ATOM      2  O   UNL     1     -24.789   9.475 -22.634  0.00  0.00    +0.000 OA
ATOM      3  N   UNL     1     -25.029   9.654 -20.302  0.00  0.00    +0.000 N 
ATOM      4  N   UNL     1     -26.632  11.228 -21.175  0.00  0.00    +0.000 NA
ATOM      5  C   UNL     1     -24.473   9.142 -21.481  0.00  0.00    +0.000 C 
ATOM      6  C   UNL     1     -26.031  10.623 -20.196  0.00  0.00    +0.000 A 
ATOM      7  C   UNL     1     -27.613  12.133 -19.253  0.00  0.00    +0.000 A 
ATOM      8  C   UNL     1     -27.551  12.104 -20.630  0.00  0.00    +0.000 A 
ATOM      9  H   UNL     1     -24.675   9.293 -19.457  0.00  0.00    +0.000 HD
ENDROOT
BRANCH   5  10
ATOM     10  C   UNL     1     -23.416   8.157 -21.302  0.00  0.00    +0.000 A 
ATOM     11  C   UNL     1     -23.595   7.060 -20.458  0.00  0.00    +0.000 A 
ATOM     12  C   UNL     1     -22.212   8.321 -21.987  0.00  0.00    +0.000 A 
ATOM     13  C   UNL     1     -22.570   6.128 -20.299  0.00  0.00    +0.000 A 
ATOM     14  C   UNL     1     -21.187   7.388 -21.828  0.00  0.00    +0.000 A 
ATOM     15  C   UNL     1     -21.366   6.292 -20.985  0.00  0.00    +0.000 A 
BRANCH  11  16
ATOM     16  O   UNL     1     -24.764   6.882 -19.781  0.00  0.00    +0.000 OA
BRANCH  16  18
ATOM     17  O   UNL     1     -25.557   5.304 -21.318  0.00  0.00    +0.000 OA
ATOM     18  C   UNL     1     -25.753   6.206 -20.514  0.00  0.00    +0.000 C 
ATOM     19  C   UNL     1     -27.107   6.753 -20.173  0.00  0.00    +0.000 C 
ENDBRANCH  16  18
ENDBRANCH  11  16
ENDBRANCH   5  10
BRANCH   7  22
ATOM     20  O   UNL     1     -29.529  12.428 -18.010  0.00  0.00    +0.000 OA
ATOM     21  O   UNL     1     -28.037  14.045 -18.042  0.00  0.00    +0.000 OA
ATOM     22  N   UNL     1     -28.423  12.896 -18.405  0.00  0.00    +0.000 N 
ENDBRANCH   7  22
TORSDOF 4
ENDMDL
MODEL 8
REMARK VINA RESULT:    -5.033      3.607      8.722
REMARK INTER + INTRA:          -7.226
REMARK INTER:                  -6.223
REMARK INTRA:                  -1.003
REMARK UNBOUND:                -1.015
REMARK  Name = 41684
REMARK  5 active torsions:
REMARK  status: ('A' for Active; 'I' for Inactive)
REMARK    1  A    between atoms: O_2  and  C_11
REMARK    2  A    between atoms: O_2  and  C_20
REMARK    3  A    between atoms: N_9  and  C_18
REMARK    4  A    between atoms: C_10  and  C_12
REMARK    5  A    between atoms: C_20  and  C_21
REMARK                            x       y       z     vdW  Elec       q    Type
REMARK                         _______ _______ _______ _____ _____    ______ ____
ROOT
ATOM      1  S   UNL     1     -20.622   7.271 -21.723  0.00  0.00    +0.000 S 
ATOM      2  O   UNL     1     -24.902   6.512 -20.107  0.00  0.00    +0.000 OA
ATOM      3  N   UNL     1     -23.069   7.744 -20.911  0.00  0.00    +0.000 N 
ATOM      4  N   UNL     1     -22.282   5.466 -20.906  0.00  0.00    +0.000 NA
ATOM      5  C   UNL     1     -24.374   7.587 -20.429  0.00  0.00    +0.000 C 
ATOM      6  C   UNL     1     -22.123   6.736 -21.121  0.00  0.00    +0.000 A 
ATOM      7  C   UNL     1     -20.091   5.640 -21.707  0.00  0.00    +0.000 A 
ATOM      8  C   UNL     1     -21.105   4.828 -21.246  0.00  0.00    +0.000 A 
ATOM      9  H   UNL     1     -22.787   8.662 -21.126  0.00  0.00    +0.000 HD
ENDROOT
BRANCH   5  10
ATOM     10  C   UNL     1     -25.139   8.817 -20.278  0.00  0.00    +0.000 A 
ATOM     11  C   UNL     1     -25.338   9.674 -21.361  0.00  0.00    +0.000 A 
ATOM     12  C   UNL     1     -25.677   9.132 -19.031  0.00  0.00    +0.000 A 
ATOM     13  C   UNL     1     -26.074  10.848 -21.195  0.00  0.00    +0.000 A 
ATOM     14  C   UNL     1     -26.413  10.306 -18.865  0.00  0.00    +0.000 A 
ATOM     15  C   UNL     1     -26.611  11.163 -19.947  0.00  0.00    +0.000 A 
BRANCH  11  16
ATOM     16  O   UNL     1     -24.821   9.384 -22.587  0.00  0.00    +0.000 OA
BRANCH  16  18
ATOM     17  O   UNL     1     -22.782  10.522 -22.423  0.00  0.00    +0.000 OA
ATOM     18  C   UNL     1     -23.825  10.276 -23.015  0.00  0.00    +0.000 C 
ATOM     19  C   UNL     1     -24.223  10.901 -24.319  0.00  0.00    +0.000 C 
ENDBRANCH  16  18
ENDBRANCH  11  16
ENDBRANCH   5  10
BRANCH   7  22
ATOM     20  O   UNL     1     -18.276   4.224 -21.754  0.00  0.00    +0.000 OA
ATOM     21  O   UNL     1     -18.163   6.114 -22.875  0.00  0.00    +0.000 OA
ATOM     22  N   UNL     1     -18.796   5.314 -22.127  0.00  0.00    +0.000 N 
ENDBRANCH   7  22
TORSDOF 4
ENDMDL
MODEL 9
REMARK VINA RESULT:    -4.948      3.404      7.893
REMARK INTER + INTRA:          -7.121
REMARK INTER:                  -6.083
REMARK INTRA:                  -1.037
REMARK UNBOUND:                -1.015
REMARK  Name = 41684
REMARK  5 active torsions:
REMARK  status: ('A' for Active; 'I' for Inactive)
REMARK    1  A    between atoms: O_2  and  C_11
REMARK    2  A    between atoms: O_2  and  C_20
REMARK    3  A    between atoms: N_9  and  C_18
REMARK    4  A    between atoms: C_10  and  C_12
REMARK    5  A    between atoms: C_20  and  C_21
REMARK                            x       y       z     vdW  Elec       q    Type
REMARK                         _______ _______ _______ _____ _____    ______ ____
ROOT
ATOM      1  S   UNL     1     -21.251   7.139 -24.200  0.00  0.00    +0.000 S 
ATOM      2  O   UNL     1     -22.257   6.317 -19.747  0.00  0.00    +0.000 OA
ATOM      3  N   UNL     1     -22.646   6.880 -21.996  0.00  0.00    +0.000 N 
ATOM      4  N   UNL     1     -20.273   6.472 -21.901  0.00  0.00    +0.000 NA
ATOM      5  C   UNL     1     -23.021   6.646 -20.667  0.00  0.00    +0.000 C 
ATOM      6  C   UNL     1     -21.360   6.789 -22.535  0.00  0.00    +0.000 A 
ATOM      7  C   UNL     1     -19.565   6.842 -24.100  0.00  0.00    +0.000 A 
ATOM      8  C   UNL     1     -19.230   6.501 -22.807  0.00  0.00    +0.000 A 
ATOM      9  H   UNL     1     -23.366   7.135 -22.617  0.00  0.00    +0.000 HD
ENDROOT
BRANCH   5  10
ATOM     10  C   UNL     1     -24.432   6.842 -20.369  0.00  0.00    +0.000 A 
ATOM     11  C   UNL     1     -25.402   5.992 -20.902  0.00  0.00    +0.000 A 
ATOM     12  C   UNL     1     -24.810   7.897 -19.538  0.00  0.00    +0.000 A 
ATOM     13  C   UNL     1     -26.750   6.197 -20.604  0.00  0.00    +0.000 A 
ATOM     14  C   UNL     1     -26.157   8.102 -19.240  0.00  0.00    +0.000 A 
ATOM     15  C   UNL     1     -27.126   7.252 -19.773  0.00  0.00    +0.000 A 
BRANCH  11  16
ATOM     16  O   UNL     1     -25.054   4.955 -21.714  0.00  0.00    +0.000 OA
BRANCH  16  18
ATOM     17  O   UNL     1     -25.058   6.046 -23.786  0.00  0.00    +0.000 OA
ATOM     18  C   UNL     1     -25.423   5.132 -23.057  0.00  0.00    +0.000 C 
ATOM     19  C   UNL     1     -26.345   4.029 -23.484  0.00  0.00    +0.000 C 
ENDBRANCH  16  18
ENDBRANCH  11  16
ENDBRANCH   5  10
BRANCH   7  22
ATOM     20  O   UNL     1     -18.727   6.022 -26.082  0.00  0.00    +0.000 OA
ATOM     21  O   UNL     1     -18.069   8.010 -25.405  0.00  0.00    +0.000 OA
ATOM     22  N   UNL     1     -18.758   6.962 -25.237  0.00  0.00    +0.000 N 
ENDBRANCH   7  22
TORSDOF 4
ENDMDL
