MODEL 1
REMARK VINA RESULT:    -6.569      0.000      0.000
REMARK INTER + INTRA:         -15.437
REMARK INTER:                 -12.714
REMARK INTRA:                  -2.723
REMARK UNBOUND:                -2.723
REMARK  Name = 121304016
REMARK  20 active torsions:
REMARK  status: ('A' for Active; 'I' for Inactive)
REMARK    1  A    between atoms: P_1  and  O_5
REMARK    2  A    between atoms: P_1  and  O_6
REMARK    3  A    between atoms: P_1  and  N_12
REMARK    4  A    between atoms: O_3  and  C_17
REMARK    5  A    between atoms: O_4  and  C_18
REMARK    6  A    between atoms: O_5  and  C_21
REMARK    7  A    between atoms: O_6  and  C_35
REMARK    8  A    between atoms: O_8  and  C_30
REMARK    9  A    between atoms: O_8  and  C_33
REMARK   10  A    between atoms: N_12  and  C_27
REMARK   11  A    between atoms: C_16  and  C_20
REMARK   12  A    between atoms: C_16  and  C_22
REMARK   13  A    between atoms: C_19  and  C_21
REMARK   14  A    between atoms: C_27  and  C_33
REMARK   15  A    between atoms: C_27  and  C_34
REMARK   16  A    between atoms: C_29  and  C_30
REMARK   17  A    between atoms: C_29  and  C_31
REMARK   18  A    between atoms: C_29  and  C_32
REMARK   19  A    between atoms: C_31  and  C_36
REMARK   20  A    between atoms: C_32  and  C_37
REMARK                            x       y       z     vdW  Elec       q    Type
REMARK                         _______ _______ _______ _____ _____    ______ ____
ROOT
ATOM      1  C   UNL     1     -26.681  11.144 -21.219  0.00  0.00    +0.000 C 
ENDROOT
BRANCH   1   6
ATOM      2  O   UNL     1     -26.413   8.800 -21.668  0.00  0.00    +0.000 OA
ATOM      3  C   UNL     1     -25.439   8.085 -20.863  0.00  0.00    +0.000 C 
ATOM      4  C   UNL     1     -25.466   8.809 -19.501  0.00  0.00    +0.000 C 
ATOM      5  C   UNL     1     -26.876   9.363 -19.416  0.00  0.00    +0.000 C 
ATOM      6  C   UNL     1     -27.152   9.740 -20.861  0.00  0.00    +0.000 C 
BRANCH   3  11
ATOM      7  N   UNL     1     -22.991   7.439 -21.044  0.00  0.00    +0.000 N 
ATOM      8  N   UNL     1     -22.977   6.627 -19.960  0.00  0.00    +0.000 NA
ATOM      9  N   UNL     1     -20.648   6.254 -20.453  0.00  0.00    +0.000 NA
ATOM     10  N   UNL     1     -19.504   7.226 -22.242  0.00  0.00    +0.000 N 
ATOM     11  C   UNL     1     -24.065   8.142 -21.527  0.00  0.00    +0.000 A 
ATOM     12  C   UNL     1     -23.647   8.839 -22.640  0.00  0.00    +0.000 A 
ATOM     13  C   UNL     1     -21.897   7.680 -21.833  0.00  0.00    +0.000 A 
ATOM     14  C   UNL     1     -22.274   8.547 -22.835  0.00  0.00    +0.000 A 
ATOM     15  C   UNL     1     -20.648   7.037 -21.503  0.00  0.00    +0.000 A 
ATOM     16  C   UNL     1     -21.814   6.086 -19.729  0.00  0.00    +0.000 A 
ATOM     17  H   UNL     1     -18.670   6.769 -21.986  0.00  0.00    +0.000 HD
ATOM     18  H   UNL     1     -19.519   7.817 -23.029  0.00  0.00    +0.000 HD
ENDBRANCH   3  11
BRANCH   5  19
ATOM     19  O   UNL     1     -27.779   8.335 -19.016  0.00  0.00    +0.000 OA
ATOM     20  H   UNL     1     -27.791   8.273 -18.048  0.00  0.00    +0.000 HD
ENDBRANCH   5  19
BRANCH   4  21
ATOM     21  O   UNL     1     -25.133   7.989 -18.399  0.00  0.00    +0.000 OA
ATOM     22  H   UNL     1     -25.941   7.742 -17.923  0.00  0.00    +0.000 HD
ENDBRANCH   4  21
BRANCH   3  24
ATOM     23  N   UNL     1     -26.243   5.577 -20.698  0.00  0.00    +0.000 NA
ATOM     24  C   UNL     1     -25.890   6.680 -20.771  0.00  0.00    +0.000 C 
ENDBRANCH   3  24
ENDBRANCH   1   6
BRANCH   1  25
ATOM     25  O   UNL     1     -26.274  11.163 -22.576  0.00  0.00    +0.000 OA
BRANCH  25  26
ATOM     26  P   UNL     1     -27.304  11.657 -23.737  0.00  0.00    +0.000 P 
ATOM     27  O   UNL     1     -28.067  10.484 -24.298  0.00  0.00    +0.000 OA
BRANCH  26  28
ATOM     28  N   UNL     1     -28.194  12.905 -23.107  0.00  0.00    +0.000 NA
ATOM     29  H   UNL     1     -27.723  13.211 -22.255  0.00  0.00    +0.000 HD
BRANCH  28  30
ATOM     30  C   UNL     1     -28.407  14.092 -23.932  0.00  0.00    +0.000 C 
ATOM     31  C   UNL     1     -29.660  13.913 -24.778  0.00  0.00    +0.000 C 
BRANCH  30  33
ATOM     32  O   UNL     1     -29.611  15.779 -22.645  0.00  0.00    +0.000 OA
ATOM     33  C   UNL     1     -28.551  15.289 -23.010  0.00  0.00    +0.000 C 
BRANCH  33  34
ATOM     34  O   UNL     1     -27.307  15.736 -22.641  0.00  0.00    +0.000 OA
BRANCH  34  35
ATOM     35  C   UNL     1     -27.223  16.359 -21.367  0.00  0.00    +0.000 C 
BRANCH  35  36
ATOM     36  C   UNL     1     -26.491  17.706 -21.481  0.00  0.00    +0.000 C 
BRANCH  36  37
ATOM     37  C   UNL     1     -27.419  18.908 -21.193  0.00  0.00    +0.000 C 
ATOM     38  C   UNL     1     -26.848  19.955 -20.246  0.00  0.00    +0.000 C 
ENDBRANCH  36  37
BRANCH  36  39
ATOM     39  C   UNL     1     -25.768  17.782 -22.840  0.00  0.00    +0.000 C 
ATOM     40  C   UNL     1     -24.420  18.486 -22.781  0.00  0.00    +0.000 C 
ENDBRANCH  36  39
ENDBRANCH  35  36
ENDBRANCH  34  35
ENDBRANCH  33  34
ENDBRANCH  30  33
ENDBRANCH  28  30
ENDBRANCH  26  28
BRANCH  26  41
ATOM     41  O   UNL     1     -26.272  12.291 -24.817  0.00  0.00    +0.000 OA
BRANCH  41  42
ATOM     42  C   UNL     1     -25.106  11.709 -25.237  0.00  0.00    +0.000 A 
ATOM     43  C   UNL     1     -25.140  10.498 -25.929  0.00  0.00    +0.000 A 
ATOM     44  C   UNL     1     -23.884  12.328 -24.975  0.00  0.00    +0.000 A 
ATOM     45  C   UNL     1     -23.952   9.906 -26.357  0.00  0.00    +0.000 A 
ATOM     46  C   UNL     1     -22.696  11.735 -25.403  0.00  0.00    +0.000 A 
ATOM     47  C   UNL     1     -22.730  10.525 -26.095  0.00  0.00    +0.000 A 
ENDBRANCH  41  42
ENDBRANCH  26  41
ENDBRANCH  25  26
ENDBRANCH   1  25
TORSDOF 17
ENDMDL
MODEL 2
REMARK VINA RESULT:    -6.474      2.361      4.132
REMARK INTER + INTRA:         -15.253
REMARK INTER:                 -12.496
REMARK INTRA:                  -2.756
REMARK UNBOUND:                -2.723
REMARK  Name = 121304016
REMARK  20 active torsions:
REMARK  status: ('A' for Active; 'I' for Inactive)
REMARK    1  A    between atoms: P_1  and  O_5
REMARK    2  A    between atoms: P_1  and  O_6
REMARK    3  A    between atoms: P_1  and  N_12
REMARK    4  A    between atoms: O_3  and  C_17
REMARK    5  A    between atoms: O_4  and  C_18
REMARK    6  A    between atoms: O_5  and  C_21
REMARK    7  A    between atoms: O_6  and  C_35
REMARK    8  A    between atoms: O_8  and  C_30
REMARK    9  A    between atoms: O_8  and  C_33
REMARK   10  A    between atoms: N_12  and  C_27
REMARK   11  A    between atoms: C_16  and  C_20
REMARK   12  A    between atoms: C_16  and  C_22
REMARK   13  A    between atoms: C_19  and  C_21
REMARK   14  A    between atoms: C_27  and  C_33
REMARK   15  A    between atoms: C_27  and  C_34
REMARK   16  A    between atoms: C_29  and  C_30
REMARK   17  A    between atoms: C_29  and  C_31
REMARK   18  A    between atoms: C_29  and  C_32
REMARK   19  A    between atoms: C_31  and  C_36
REMARK   20  A    between atoms: C_32  and  C_37
REMARK                            x       y       z     vdW  Elec       q    Type
REMARK                         _______ _______ _______ _____ _____    ______ ____
ROOT
ATOM      1  C   UNL     1     -26.526  11.171 -20.961  0.00  0.00    +0.000 C 
ENDROOT
BRANCH   1   6
ATOM      2  O   UNL     1     -26.326   8.841 -21.512  0.00  0.00    +0.000 OA
ATOM      3  C   UNL     1     -25.365   8.066 -20.749  0.00  0.00    +0.000 C 
ATOM      4  C   UNL     1     -25.360   8.732 -19.357  0.00  0.00    +0.000 C 
ATOM      5  C   UNL     1     -26.753   9.319 -19.233  0.00  0.00    +0.000 C 
ATOM      6  C   UNL     1     -27.032   9.765 -20.658  0.00  0.00    +0.000 C 
BRANCH   3  11
ATOM      7  N   UNL     1     -22.929   7.387 -20.964  0.00  0.00    +0.000 N 
ATOM      8  N   UNL     1     -22.919   6.553 -19.896  0.00  0.00    +0.000 NA
ATOM      9  N   UNL     1     -20.600   6.154 -20.417  0.00  0.00    +0.000 NA
ATOM     10  N   UNL     1     -19.457   7.143 -22.197  0.00  0.00    +0.000 N 
ATOM     11  C   UNL     1     -23.996   8.115 -21.424  0.00  0.00    +0.000 A 
ATOM     12  C   UNL     1     -23.577   8.828 -22.527  0.00  0.00    +0.000 A 
ATOM     13  C   UNL     1     -21.838   7.626 -21.758  0.00  0.00    +0.000 A 
ATOM     14  C   UNL     1     -22.210   8.519 -22.739  0.00  0.00    +0.000 A 
ATOM     15  C   UNL     1     -20.596   6.957 -21.451  0.00  0.00    +0.000 A 
ATOM     16  C   UNL     1     -21.763   5.990 -19.686  0.00  0.00    +0.000 A 
ATOM     17  H   UNL     1     -18.627   6.668 -21.956  0.00  0.00    +0.000 HD
ATOM     18  H   UNL     1     -19.468   7.750 -22.972  0.00  0.00    +0.000 HD
ENDBRANCH   3  11
BRANCH   5  19
ATOM     19  O   UNL     1     -27.681   8.300 -18.869  0.00  0.00    +0.000 OA
ATOM     20  H   UNL     1     -27.279   7.719 -18.204  0.00  0.00    +0.000 HD
ENDBRANCH   5  19
BRANCH   4  21
ATOM     21  O   UNL     1     -25.039   7.856 -18.294  0.00  0.00    +0.000 OA
ATOM     22  H   UNL     1     -25.854   7.474 -17.933  0.00  0.00    +0.000 HD
ENDBRANCH   4  21
BRANCH   3  24
ATOM     23  N   UNL     1     -26.235   5.577 -20.684  0.00  0.00    +0.000 NA
ATOM     24  C   UNL     1     -25.853   6.671 -20.712  0.00  0.00    +0.000 C 
ENDBRANCH   3  24
ENDBRANCH   1   6
BRANCH   1  25
ATOM     25  O   UNL     1     -27.365  11.764 -21.937  0.00  0.00    +0.000 OA
BRANCH  25  26
ATOM     26  P   UNL     1     -28.309  13.034 -21.547  0.00  0.00    +0.000 P 
ATOM     27  O   UNL     1     -29.764  12.642 -21.600  0.00  0.00    +0.000 OA
BRANCH  26  28
ATOM     28  N   UNL     1     -27.744  13.647 -20.116  0.00  0.00    +0.000 NA
ATOM     29  H   UNL     1     -27.739  14.664 -20.204  0.00  0.00    +0.000 HD
BRANCH  28  30
ATOM     30  C   UNL     1     -28.467  13.325 -18.888  0.00  0.00    +0.000 C 
ATOM     31  C   UNL     1     -27.477  13.007 -17.776  0.00  0.00    +0.000 C 
BRANCH  30  33
ATOM     32  O   UNL     1     -30.458  14.467 -18.060  0.00  0.00    +0.000 OA
ATOM     33  C   UNL     1     -29.324  14.522 -18.516  0.00  0.00    +0.000 C 
BRANCH  33  34
ATOM     34  O   UNL     1     -28.629  15.678 -18.766  0.00  0.00    +0.000 OA
BRANCH  34  35
ATOM     35  C   UNL     1     -28.557  16.605 -17.691  0.00  0.00    +0.000 C 
BRANCH  35  36
ATOM     36  C   UNL     1     -27.129  17.160 -17.562  0.00  0.00    +0.000 C 
BRANCH  36  37
ATOM     37  C   UNL     1     -26.416  17.275 -18.928  0.00  0.00    +0.000 C 
ATOM     38  C   UNL     1     -25.761  18.622 -19.205  0.00  0.00    +0.000 C 
ENDBRANCH  36  37
BRANCH  36  39
ATOM     39  C   UNL     1     -26.353  16.337 -16.515  0.00  0.00    +0.000 C 
ATOM     40  C   UNL     1     -27.125  16.095 -15.226  0.00  0.00    +0.000 C 
ENDBRANCH  36  39
ENDBRANCH  35  36
ENDBRANCH  34  35
ENDBRANCH  33  34
ENDBRANCH  30  33
ENDBRANCH  28  30
ENDBRANCH  26  28
BRANCH  26  41
ATOM     41  O   UNL     1     -27.912  14.084 -22.719  0.00  0.00    +0.000 OA
BRANCH  41  42
ATOM     42  C   UNL     1     -27.867  15.445 -22.584  0.00  0.00    +0.000 A 
ATOM     43  C   UNL     1     -29.031  16.156 -22.293  0.00  0.00    +0.000 A 
ATOM     44  C   UNL     1     -26.657  16.121 -22.737  0.00  0.00    +0.000 A 
ATOM     45  C   UNL     1     -28.985  17.544 -22.155  0.00  0.00    +0.000 A 
ATOM     46  C   UNL     1     -26.611  17.508 -22.599  0.00  0.00    +0.000 A 
ATOM     47  C   UNL     1     -27.774  18.220 -22.308  0.00  0.00    +0.000 A 
ENDBRANCH  41  42
ENDBRANCH  26  41
ENDBRANCH  25  26
ENDBRANCH   1  25
TORSDOF 17
ENDMDL
MODEL 3
REMARK VINA RESULT:    -6.392      3.776      5.734
REMARK INTER + INTRA:         -15.094
REMARK INTER:                 -12.314
REMARK INTRA:                  -2.780
REMARK UNBOUND:                -2.723
REMARK  Name = 121304016
REMARK  20 active torsions:
REMARK  status: ('A' for Active; 'I' for Inactive)
REMARK    1  A    between atoms: P_1  and  O_5
REMARK    2  A    between atoms: P_1  and  O_6
REMARK    3  A    between atoms: P_1  and  N_12
REMARK    4  A    between atoms: O_3  and  C_17
REMARK    5  A    between atoms: O_4  and  C_18
REMARK    6  A    between atoms: O_5  and  C_21
REMARK    7  A    between atoms: O_6  and  C_35
REMARK    8  A    between atoms: O_8  and  C_30
REMARK    9  A    between atoms: O_8  and  C_33
REMARK   10  A    between atoms: N_12  and  C_27
REMARK   11  A    between atoms: C_16  and  C_20
REMARK   12  A    between atoms: C_16  and  C_22
REMARK   13  A    between atoms: C_19  and  C_21
REMARK   14  A    between atoms: C_27  and  C_33
REMARK   15  A    between atoms: C_27  and  C_34
REMARK   16  A    between atoms: C_29  and  C_30
REMARK   17  A    between atoms: C_29  and  C_31
REMARK   18  A    between atoms: C_29  and  C_32
REMARK   19  A    between atoms: C_31  and  C_36
REMARK   20  A    between atoms: C_32  and  C_37
REMARK                            x       y       z     vdW  Elec       q    Type
REMARK                         _______ _______ _______ _____ _____    ______ ____
ROOT
ATOM      1  C   UNL     1     -26.784  11.327 -20.693  0.00  0.00    +0.000 C 
ENDROOT
BRANCH   1   6
ATOM      2  O   UNL     1     -26.574   9.043 -21.405  0.00  0.00    +0.000 OA
ATOM      3  C   UNL     1     -25.576   8.234 -20.731  0.00  0.00    +0.000 C 
ATOM      4  C   UNL     1     -25.528   8.805 -19.299  0.00  0.00    +0.000 C 
ATOM      5  C   UNL     1     -26.923   9.362 -19.086  0.00  0.00    +0.000 C 
ATOM      6  C   UNL     1     -27.260   9.897 -20.467  0.00  0.00    +0.000 C 
BRANCH   3  11
ATOM      7  N   UNL     1     -23.142   7.606 -21.080  0.00  0.00    +0.000 N 
ATOM      8  N   UNL     1     -23.082   6.702 -20.072  0.00  0.00    +0.000 NA
ATOM      9  N   UNL     1     -20.779   6.373 -20.702  0.00  0.00    +0.000 NA
ATOM     10  N   UNL     1     -19.714   7.497 -22.451  0.00  0.00    +0.000 N 
ATOM     11  C   UNL     1     -24.233   8.348 -21.450  0.00  0.00    +0.000 A 
ATOM     12  C   UNL     1     -23.864   9.140 -22.516  0.00  0.00    +0.000 A 
ATOM     13  C   UNL     1     -22.084   7.914 -21.894  0.00  0.00    +0.000 A 
ATOM     14  C   UNL     1     -22.502   8.866 -22.799  0.00  0.00    +0.000 A 
ATOM     15  C   UNL     1     -20.823   7.245 -21.679  0.00  0.00    +0.000 A 
ATOM     16  C   UNL     1     -21.912   6.143 -19.943  0.00  0.00    +0.000 A 
ATOM     17  H   UNL     1     -18.871   7.019 -22.274  0.00  0.00    +0.000 HD
ATOM     18  H   UNL     1     -19.762   8.155 -23.182  0.00  0.00    +0.000 HD
ENDBRANCH   3  11
BRANCH   5  19
ATOM     19  O   UNL     1     -27.824   8.306 -18.757  0.00  0.00    +0.000 OA
ATOM     20  H   UNL     1     -27.748   8.099 -17.813  0.00  0.00    +0.000 HD
ENDBRANCH   5  19
BRANCH   4  21
ATOM     21  O   UNL     1     -25.157   7.866 -18.309  0.00  0.00    +0.000 OA
ATOM     22  H   UNL     1     -24.573   7.198 -18.700  0.00  0.00    +0.000 HD
ENDBRANCH   4  21
BRANCH   3  24
ATOM     23  N   UNL     1     -26.411   5.732 -20.801  0.00  0.00    +0.000 NA
ATOM     24  C   UNL     1     -26.044   6.832 -20.770  0.00  0.00    +0.000 C 
ENDBRANCH   3  24
ENDBRANCH   1   6
BRANCH   1  25
ATOM     25  O   UNL     1     -27.884  12.209 -20.549  0.00  0.00    +0.000 OA
BRANCH  25  26
ATOM     26  P   UNL     1     -28.033  13.126 -19.211  0.00  0.00    +0.000 P 
ATOM     27  O   UNL     1     -26.862  12.903 -18.288  0.00  0.00    +0.000 OA
BRANCH  26  28
ATOM     28  N   UNL     1     -28.317  14.681 -19.708  0.00  0.00    +0.000 NA
ATOM     29  H   UNL     1     -28.713  15.184 -18.914  0.00  0.00    +0.000 HD
BRANCH  28  30
ATOM     30  C   UNL     1     -27.189  15.470 -20.199  0.00  0.00    +0.000 C 
ATOM     31  C   UNL     1     -27.457  15.916 -21.630  0.00  0.00    +0.000 C 
BRANCH  30  33
ATOM     32  O   UNL     1     -27.337  17.820 -19.562  0.00  0.00    +0.000 OA
ATOM     33  C   UNL     1     -27.019  16.671 -19.287  0.00  0.00    +0.000 C 
BRANCH  33  34
ATOM     34  O   UNL     1     -26.457  16.270 -18.101  0.00  0.00    +0.000 OA
BRANCH  34  35
ATOM     35  C   UNL     1     -26.650  17.142 -16.996  0.00  0.00    +0.000 C 
BRANCH  35  36
ATOM     36  C   UNL     1     -27.782  16.619 -16.096  0.00  0.00    +0.000 C 
BRANCH  36  37
ATOM     37  C   UNL     1     -29.126  17.332 -16.366  0.00  0.00    +0.000 C 
ATOM     38  C   UNL     1     -30.003  17.546 -15.139  0.00  0.00    +0.000 C 
ENDBRANCH  36  37
BRANCH  36  39
ATOM     39  C   UNL     1     -27.329  16.669 -14.624  0.00  0.00    +0.000 C 
ATOM     40  C   UNL     1     -27.244  15.302 -13.960  0.00  0.00    +0.000 C 
ENDBRANCH  36  39
ENDBRANCH  35  36
ENDBRANCH  34  35
ENDBRANCH  33  34
ENDBRANCH  30  33
ENDBRANCH  28  30
ENDBRANCH  26  28
BRANCH  26  41
ATOM     41  O   UNL     1     -29.419  12.550 -18.595  0.00  0.00    +0.000 OA
BRANCH  41  42
ATOM     42  C   UNL     1     -30.136  13.123 -17.579  0.00  0.00    +0.000 A 
ATOM     43  C   UNL     1     -31.386  13.684 -17.838  0.00  0.00    +0.000 A 
ATOM     44  C   UNL     1     -29.616  13.145 -16.285  0.00  0.00    +0.000 A 
ATOM     45  C   UNL     1     -32.116  14.268 -16.802  0.00  0.00    +0.000 A 
ATOM     46  C   UNL     1     -30.346  13.728 -15.250  0.00  0.00    +0.000 A 
ATOM     47  C   UNL     1     -31.596  14.290 -15.507  0.00  0.00    +0.000 A 
ENDBRANCH  41  42
ENDBRANCH  26  41
ENDBRANCH  25  26
ENDBRANCH   1  25
TORSDOF 17
ENDMDL
MODEL 4
REMARK VINA RESULT:    -6.378      5.125      8.874
REMARK INTER + INTRA:         -15.068
REMARK INTER:                 -12.412
REMARK INTRA:                  -2.656
REMARK UNBOUND:                -2.723
REMARK  Name = 121304016
REMARK  20 active torsions:
REMARK  status: ('A' for Active; 'I' for Inactive)
REMARK    1  A    between atoms: P_1  and  O_5
REMARK    2  A    between atoms: P_1  and  O_6
REMARK    3  A    between atoms: P_1  and  N_12
REMARK    4  A    between atoms: O_3  and  C_17
REMARK    5  A    between atoms: O_4  and  C_18
REMARK    6  A    between atoms: O_5  and  C_21
REMARK    7  A    between atoms: O_6  and  C_35
REMARK    8  A    between atoms: O_8  and  C_30
REMARK    9  A    between atoms: O_8  and  C_33
REMARK   10  A    between atoms: N_12  and  C_27
REMARK   11  A    between atoms: C_16  and  C_20
REMARK   12  A    between atoms: C_16  and  C_22
REMARK   13  A    between atoms: C_19  and  C_21
REMARK   14  A    between atoms: C_27  and  C_33
REMARK   15  A    between atoms: C_27  and  C_34
REMARK   16  A    between atoms: C_29  and  C_30
REMARK   17  A    between atoms: C_29  and  C_31
REMARK   18  A    between atoms: C_29  and  C_32
REMARK   19  A    between atoms: C_31  and  C_36
REMARK   20  A    between atoms: C_32  and  C_37
REMARK                            x       y       z     vdW  Elec       q    Type
REMARK                         _______ _______ _______ _____ _____    ______ ____
ROOT
ATOM      1  C   UNL     1     -23.187   9.419 -22.716  0.00  0.00    +0.000 C 
ENDROOT
BRANCH   1   6
ATOM      2  O   UNL     1     -24.417   7.377 -22.423  0.00  0.00    +0.000 OA
ATOM      3  C   UNL     1     -24.349   6.751 -21.116  0.00  0.00    +0.000 C 
ATOM      4  C   UNL     1     -24.196   7.933 -20.137  0.00  0.00    +0.000 C 
ATOM      5  C   UNL     1     -24.880   9.084 -20.850  0.00  0.00    +0.000 C 
ATOM      6  C   UNL     1     -24.521   8.811 -22.300  0.00  0.00    +0.000 C 
BRANCH   3  11
ATOM      7  N   UNL     1     -23.085   4.681 -21.861  0.00  0.00    +0.000 N 
ATOM      8  N   UNL     1     -23.990   4.287 -22.789  0.00  0.00    +0.000 NA
ATOM      9  N   UNL     1     -22.518   2.429 -23.223  0.00  0.00    +0.000 NA
ATOM     10  N   UNL     1     -20.494   2.062 -22.118  0.00  0.00    +0.000 N 
ATOM     11  C   UNL     1     -23.167   5.787 -21.055  0.00  0.00    +0.000 A 
ATOM     12  C   UNL     1     -22.041   5.814 -20.261  0.00  0.00    +0.000 A 
ATOM     13  C   UNL     1     -21.925   4.004 -21.590  0.00  0.00    +0.000 A 
ATOM     14  C   UNL     1     -21.253   4.685 -20.599  0.00  0.00    +0.000 A 
ATOM     15  C   UNL     1     -21.635   2.798 -22.329  0.00  0.00    +0.000 A 
ATOM     16  C   UNL     1     -23.657   3.191 -23.411  0.00  0.00    +0.000 A 
ATOM     17  H   UNL     1     -20.331   1.244 -22.642  0.00  0.00    +0.000 HD
ATOM     18  H   UNL     1     -19.839   2.351 -21.442  0.00  0.00    +0.000 HD
ENDBRANCH   3  11
BRANCH   5  19
ATOM     19  O   UNL     1     -26.293   8.985 -20.689  0.00  0.00    +0.000 OA
ATOM     20  H   UNL     1     -26.493   8.428 -19.920  0.00  0.00    +0.000 HD
ENDBRANCH   5  19
BRANCH   4  21
ATOM     21  O   UNL     1     -24.727   7.695 -18.848  0.00  0.00    +0.000 OA
ATOM     22  H   UNL     1     -25.344   8.407 -18.616  0.00  0.00    +0.000 HD
ENDBRANCH   4  21
BRANCH   3  24
ATOM     23  N   UNL     1     -26.600   5.422 -20.761  0.00  0.00    +0.000 NA
ATOM     24  C   UNL     1     -25.611   6.006 -20.917  0.00  0.00    +0.000 C 
ENDBRANCH   3  24
ENDBRANCH   1   6
BRANCH   1  25
ATOM     25  O   UNL     1     -22.414   8.431 -23.377  0.00  0.00    +0.000 OA
BRANCH  25  26
ATOM     26  P   UNL     1     -22.188   8.507 -24.989  0.00  0.00    +0.000 P 
ATOM     27  O   UNL     1     -22.458   9.902 -25.493  0.00  0.00    +0.000 OA
BRANCH  26  28
ATOM     28  N   UNL     1     -20.694   7.865 -25.307  0.00  0.00    +0.000 NA
ATOM     29  H   UNL     1     -20.062   8.647 -25.483  0.00  0.00    +0.000 HD
BRANCH  28  30
ATOM     30  C   UNL     1     -20.067   7.025 -24.289  0.00  0.00    +0.000 C 
ATOM     31  C   UNL     1     -20.453   5.569 -24.515  0.00  0.00    +0.000 C 
BRANCH  30  33
ATOM     32  O   UNL     1     -17.985   7.889 -25.221  0.00  0.00    +0.000 OA
ATOM     33  C   UNL     1     -18.563   7.202 -24.389  0.00  0.00    +0.000 C 
BRANCH  33  34
ATOM     34  O   UNL     1     -17.949   6.476 -23.400  0.00  0.00    +0.000 OA
BRANCH  34  35
ATOM     35  C   UNL     1     -16.528   6.517 -23.391  0.00  0.00    +0.000 C 
BRANCH  35  36
ATOM     36  C   UNL     1     -15.955   5.093 -23.483  0.00  0.00    +0.000 C 
BRANCH  36  37
ATOM     37  C   UNL     1     -17.057   4.025 -23.668  0.00  0.00    +0.000 C 
ATOM     38  C   UNL     1     -16.596   2.584 -23.496  0.00  0.00    +0.000 C 
ENDBRANCH  36  37
BRANCH  36  39
ATOM     39  C   UNL     1     -15.027   4.837 -22.279  0.00  0.00    +0.000 C 
ATOM     40  C   UNL     1     -13.617   4.415 -22.668  0.00  0.00    +0.000 C 
ENDBRANCH  36  39
ENDBRANCH  35  36
ENDBRANCH  34  35
ENDBRANCH  33  34
ENDBRANCH  30  33
ENDBRANCH  28  30
ENDBRANCH  26  28
BRANCH  26  41
ATOM     41  O   UNL     1     -23.297   7.441 -25.506  0.00  0.00    +0.000 OA
BRANCH  41  42
ATOM     42  C   UNL     1     -23.298   6.827 -26.729  0.00  0.00    +0.000 A 
ATOM     43  C   UNL     1     -23.256   7.592 -27.894  0.00  0.00    +0.000 A 
ATOM     44  C   UNL     1     -23.342   5.435 -26.811  0.00  0.00    +0.000 A 
ATOM     45  C   UNL     1     -23.257   6.966 -29.141  0.00  0.00    +0.000 A 
ATOM     46  C   UNL     1     -23.343   4.809 -28.057  0.00  0.00    +0.000 A 
ATOM     47  C   UNL     1     -23.300   5.574 -29.223  0.00  0.00    +0.000 A 
ENDBRANCH  41  42
ENDBRANCH  26  41
ENDBRANCH  25  26
ENDBRANCH   1  25
TORSDOF 17
ENDMDL
MODEL 5
REMARK VINA RESULT:    -6.372      5.477      8.557
REMARK INTER + INTRA:         -15.056
REMARK INTER:                 -11.551
REMARK INTRA:                  -3.505
REMARK UNBOUND:                -2.723
REMARK  Name = 121304016
REMARK  20 active torsions:
REMARK  status: ('A' for Active; 'I' for Inactive)
REMARK    1  A    between atoms: P_1  and  O_5
REMARK    2  A    between atoms: P_1  and  O_6
REMARK    3  A    between atoms: P_1  and  N_12
REMARK    4  A    between atoms: O_3  and  C_17
REMARK    5  A    between atoms: O_4  and  C_18
REMARK    6  A    between atoms: O_5  and  C_21
REMARK    7  A    between atoms: O_6  and  C_35
REMARK    8  A    between atoms: O_8  and  C_30
REMARK    9  A    between atoms: O_8  and  C_33
REMARK   10  A    between atoms: N_12  and  C_27
REMARK   11  A    between atoms: C_16  and  C_20
REMARK   12  A    between atoms: C_16  and  C_22
REMARK   13  A    between atoms: C_19  and  C_21
REMARK   14  A    between atoms: C_27  and  C_33
REMARK   15  A    between atoms: C_27  and  C_34
REMARK   16  A    between atoms: C_29  and  C_30
REMARK   17  A    between atoms: C_29  and  C_31
REMARK   18  A    between atoms: C_29  and  C_32
REMARK   19  A    between atoms: C_31  and  C_36
REMARK   20  A    between atoms: C_32  and  C_37
REMARK                            x       y       z     vdW  Elec       q    Type
REMARK                         _______ _______ _______ _____ _____    ______ ____
ROOT
ATOM      1  C   UNL     1     -21.004   4.201 -27.408  0.00  0.00    +0.000 C 
ENDROOT
BRANCH   1   6
ATOM      2  O   UNL     1     -19.896   6.046 -26.342  0.00  0.00    +0.000 OA
ATOM      3  C   UNL     1     -18.913   5.723 -25.325  0.00  0.00    +0.000 C 
ATOM      4  C   UNL     1     -18.318   4.377 -25.786  0.00  0.00    +0.000 C 
ATOM      5  C   UNL     1     -18.473   4.412 -27.295  0.00  0.00    +0.000 C 
ATOM      6  C   UNL     1     -19.800   5.134 -27.455  0.00  0.00    +0.000 C 
BRANCH   3  11
ATOM      7  N   UNL     1     -19.960   4.424 -23.412  0.00  0.00    +0.000 N 
ATOM      8  N   UNL     1     -19.805   3.200 -23.970  0.00  0.00    +0.000 NA
ATOM      9  N   UNL     1     -20.851   2.326 -21.982  0.00  0.00    +0.000 NA
ATOM     10  N   UNL     1     -21.596   3.634 -20.197  0.00  0.00    +0.000 N 
ATOM     11  C   UNL     1     -19.585   5.625 -23.957  0.00  0.00    +0.000 A 
ATOM     12  C   UNL     1     -19.925   6.619 -23.064  0.00  0.00    +0.000 A 
ATOM     13  C   UNL     1     -20.535   4.640 -22.187  0.00  0.00    +0.000 A 
ATOM     14  C   UNL     1     -20.527   5.996 -21.942  0.00  0.00    +0.000 A 
ATOM     15  C   UNL     1     -21.008   3.504 -21.432  0.00  0.00    +0.000 A 
ATOM     16  C   UNL     1     -20.257   2.228 -23.227  0.00  0.00    +0.000 A 
ATOM     17  H   UNL     1     -21.906   2.834 -19.712  0.00  0.00    +0.000 HD
ATOM     18  H   UNL     1     -21.707   4.526 -19.795  0.00  0.00    +0.000 HD
ENDBRANCH   3  11
BRANCH   5  19
ATOM     19  O   UNL     1     -17.436   5.200 -27.873  0.00  0.00    +0.000 OA
ATOM     20  H   UNL     1     -16.747   4.617 -28.229  0.00  0.00    +0.000 HD
ENDBRANCH   5  19
BRANCH   4  21
ATOM     21  O   UNL     1     -16.980   4.162 -25.379  0.00  0.00    +0.000 OA
ATOM     22  H   UNL     1     -16.972   3.657 -24.552  0.00  0.00    +0.000 HD
ENDBRANCH   4  21
BRANCH   3  24
ATOM     23  N   UNL     1     -17.133   7.669 -25.303  0.00  0.00    +0.000 NA
ATOM     24  C   UNL     1     -17.915   6.814 -25.313  0.00  0.00    +0.000 C 
ENDBRANCH   3  24
ENDBRANCH   1   6
BRANCH   1  25
ATOM     25  O   UNL     1     -22.054   4.761 -28.178  0.00  0.00    +0.000 OA
BRANCH  25  26
ATOM     26  P   UNL     1     -23.258   5.584 -27.452  0.00  0.00    +0.000 P 
ATOM     27  O   UNL     1     -24.592   4.961 -27.777  0.00  0.00    +0.000 OA
BRANCH  26  28
ATOM     28  N   UNL     1     -22.861   5.726 -25.849  0.00  0.00    +0.000 NA
ATOM     29  H   UNL     1     -22.436   6.645 -25.724  0.00  0.00    +0.000 HD
BRANCH  28  30
ATOM     30  C   UNL     1     -23.927   5.605 -24.857  0.00  0.00    +0.000 C 
ATOM     31  C   UNL     1     -23.633   4.436 -23.926  0.00  0.00    +0.000 C 
BRANCH  30  33
ATOM     32  O   UNL     1     -23.101   7.737 -24.004  0.00  0.00    +0.000 OA
ATOM     33  C   UNL     1     -23.996   6.906 -24.077  0.00  0.00    +0.000 C 
BRANCH  33  34
ATOM     34  O   UNL     1     -25.221   7.011 -23.468  0.00  0.00    +0.000 OA
BRANCH  34  35
ATOM     35  C   UNL     1     -25.421   8.169 -22.670  0.00  0.00    +0.000 C 
BRANCH  35  36
ATOM     36  C   UNL     1     -25.359   7.805 -21.177  0.00  0.00    +0.000 C 
BRANCH  36  37
ATOM     37  C   UNL     1     -23.930   7.925 -20.601  0.00  0.00    +0.000 C 
ATOM     38  C   UNL     1     -23.465   6.737 -19.770  0.00  0.00    +0.000 C 
ENDBRANCH  36  37
BRANCH  36  39
ATOM     39  C   UNL     1     -26.010   6.424 -20.960  0.00  0.00    +0.000 C 
ATOM     40  C   UNL     1     -27.521   6.478 -20.784  0.00  0.00    +0.000 C 
ENDBRANCH  36  39
ENDBRANCH  35  36
ENDBRANCH  34  35
ENDBRANCH  33  34
ENDBRANCH  30  33
ENDBRANCH  28  30
ENDBRANCH  26  28
BRANCH  26  41
ATOM     41  O   UNL     1     -23.083   7.048 -28.129  0.00  0.00    +0.000 OA
BRANCH  41  42
ATOM     42  C   UNL     1     -23.326   8.244 -27.510  0.00  0.00    +0.000 A 
ATOM     43  C   UNL     1     -22.268   9.102 -27.209  0.00  0.00    +0.000 A 
ATOM     44  C   UNL     1     -24.632   8.606 -27.180  0.00  0.00    +0.000 A 
ATOM     45  C   UNL     1     -22.515  10.321 -26.577  0.00  0.00    +0.000 A 
ATOM     46  C   UNL     1     -24.879   9.825 -26.549  0.00  0.00    +0.000 A 
ATOM     47  C   UNL     1     -23.822  10.683 -26.248  0.00  0.00    +0.000 A 
ENDBRANCH  41  42
ENDBRANCH  26  41
ENDBRANCH  25  26
ENDBRANCH   1  25
TORSDOF 17
ENDMDL
MODEL 6
REMARK VINA RESULT:    -6.368      5.545      8.690
REMARK INTER + INTRA:         -15.048
REMARK INTER:                 -12.400
REMARK INTRA:                  -2.648
REMARK UNBOUND:                -2.723
REMARK  Name = 121304016
REMARK  20 active torsions:
REMARK  status: ('A' for Active; 'I' for Inactive)
REMARK    1  A    between atoms: P_1  and  O_5
REMARK    2  A    between atoms: P_1  and  O_6
REMARK    3  A    between atoms: P_1  and  N_12
REMARK    4  A    between atoms: O_3  and  C_17
REMARK    5  A    between atoms: O_4  and  C_18
REMARK    6  A    between atoms: O_5  and  C_21
REMARK    7  A    between atoms: O_6  and  C_35
REMARK    8  A    between atoms: O_8  and  C_30
REMARK    9  A    between atoms: O_8  and  C_33
REMARK   10  A    between atoms: N_12  and  C_27
REMARK   11  A    between atoms: C_16  and  C_20
REMARK   12  A    between atoms: C_16  and  C_22
REMARK   13  A    between atoms: C_19  and  C_21
REMARK   14  A    between atoms: C_27  and  C_33
REMARK   15  A    between atoms: C_27  and  C_34
REMARK   16  A    between atoms: C_29  and  C_30
REMARK   17  A    between atoms: C_29  and  C_31
REMARK   18  A    between atoms: C_29  and  C_32
REMARK   19  A    between atoms: C_31  and  C_36
REMARK   20  A    between atoms: C_32  and  C_37
REMARK                            x       y       z     vdW  Elec       q    Type
REMARK                         _______ _______ _______ _____ _____    ______ ____
ROOT
ATOM      1  C   UNL     1     -20.903   4.059 -27.582  0.00  0.00    +0.000 C 
ENDROOT
BRANCH   1   6
ATOM      2  O   UNL     1     -19.887   5.938 -26.484  0.00  0.00    +0.000 OA
ATOM      3  C   UNL     1     -18.945   5.646 -25.419  0.00  0.00    +0.000 C 
ATOM      4  C   UNL     1     -18.299   4.310 -25.840  0.00  0.00    +0.000 C 
ATOM      5  C   UNL     1     -18.386   4.328 -27.354  0.00  0.00    +0.000 C 
ATOM      6  C   UNL     1     -19.719   5.019 -27.583  0.00  0.00    +0.000 C 
BRANCH   3  11
ATOM      7  N   UNL     1     -19.922   4.341 -23.474  0.00  0.00    +0.000 N 
ATOM      8  N   UNL     1     -19.573   3.116 -23.934  0.00  0.00    +0.000 NA
ATOM      9  N   UNL     1     -20.609   2.235 -21.944  0.00  0.00    +0.000 NA
ATOM     10  N   UNL     1     -21.624   3.540 -20.295  0.00  0.00    +0.000 N 
ATOM     11  C   UNL     1     -19.678   5.544 -24.083  0.00  0.00    +0.000 A 
ATOM     12  C   UNL     1     -20.198   6.537 -23.280  0.00  0.00    +0.000 A 
ATOM     13  C   UNL     1     -20.591   4.553 -22.297  0.00  0.00    +0.000 A 
ATOM     14  C   UNL     1     -20.777   5.910 -22.149  0.00  0.00    +0.000 A 
ATOM     15  C   UNL     1     -20.952   3.413 -21.488  0.00  0.00    +0.000 A 
ATOM     16  C   UNL     1     -19.935   2.141 -23.148  0.00  0.00    +0.000 A 
ATOM     17  H   UNL     1     -21.853   2.738 -19.771  0.00  0.00    +0.000 HD
ATOM     18  H   UNL     1     -21.876   4.432 -19.964  0.00  0.00    +0.000 HD
ENDBRANCH   3  11
BRANCH   5  19
ATOM     19  O   UNL     1     -17.340   5.135 -27.891  0.00  0.00    +0.000 OA
ATOM     20  H   UNL     1     -17.125   4.831 -28.787  0.00  0.00    +0.000 HD
ENDBRANCH   5  19
BRANCH   4  21
ATOM     21  O   UNL     1     -16.978   4.128 -25.369  0.00  0.00    +0.000 OA
ATOM     22  H   UNL     1     -16.789   3.180 -25.294  0.00  0.00    +0.000 HD
ENDBRANCH   4  21
BRANCH   3  24
ATOM     23  N   UNL     1     -17.211   7.632 -25.333  0.00  0.00    +0.000 NA
ATOM     24  C   UNL     1     -17.973   6.759 -25.371  0.00  0.00    +0.000 C 
ENDBRANCH   3  24
ENDBRANCH   1   6
BRANCH   1  25
ATOM     25  O   UNL     1     -21.977   4.649 -28.294  0.00  0.00    +0.000 OA
BRANCH  25  26
ATOM     26  P   UNL     1     -23.289   5.197 -27.500  0.00  0.00    +0.000 P 
ATOM     27  O   UNL     1     -24.341   4.119 -27.416  0.00  0.00    +0.000 OA
BRANCH  26  28
ATOM     28  N   UNL     1     -22.763   5.851 -26.071  0.00  0.00    +0.000 NA
ATOM     29  H   UNL     1     -21.978   6.464 -26.291  0.00  0.00    +0.000 HD
BRANCH  28  30
ATOM     30  C   UNL     1     -23.708   6.630 -25.274  0.00  0.00    +0.000 C 
ATOM     31  C   UNL     1     -24.040   5.879 -23.991  0.00  0.00    +0.000 C 
BRANCH  30  33
ATOM     32  O   UNL     1     -23.176   8.576 -23.902  0.00  0.00    +0.000 OA
ATOM     33  C   UNL     1     -23.069   7.970 -24.959  0.00  0.00    +0.000 C 
BRANCH  33  34
ATOM     34  O   UNL     1     -22.345   8.399 -26.044  0.00  0.00    +0.000 OA
BRANCH  34  35
ATOM     35  C   UNL     1     -22.955   9.406 -26.839  0.00  0.00    +0.000 C 
BRANCH  35  36
ATOM     36  C   UNL     1     -22.109  10.689 -26.814  0.00  0.00    +0.000 C 
BRANCH  36  37
ATOM     37  C   UNL     1     -20.616  10.404 -26.533  0.00  0.00    +0.000 C 
ATOM     38  C   UNL     1     -19.660  10.800 -27.651  0.00  0.00    +0.000 C 
ENDBRANCH  36  37
BRANCH  36  39
ATOM     39  C   UNL     1     -22.747  11.705 -25.846  0.00  0.00    +0.000 C 
ATOM     40  C   UNL     1     -23.614  12.750 -26.534  0.00  0.00    +0.000 C 
ENDBRANCH  36  39
ENDBRANCH  35  36
ENDBRANCH  34  35
ENDBRANCH  33  34
ENDBRANCH  30  33
ENDBRANCH  28  30
ENDBRANCH  26  28
BRANCH  26  41
ATOM     41  O   UNL     1     -23.742   6.424 -28.461  0.00  0.00    +0.000 OA
BRANCH  41  42
ATOM     42  C   UNL     1     -24.724   6.367 -29.412  0.00  0.00    +0.000 A 
ATOM     43  C   UNL     1     -24.468   5.762 -30.643  0.00  0.00    +0.000 A 
ATOM     44  C   UNL     1     -25.980   6.914 -29.152  0.00  0.00    +0.000 A 
ATOM     45  C   UNL     1     -25.469   5.704 -31.613  0.00  0.00    +0.000 A 
ATOM     46  C   UNL     1     -26.981   6.856 -30.123  0.00  0.00    +0.000 A 
ATOM     47  C   UNL     1     -26.726   6.250 -31.353  0.00  0.00    +0.000 A 
ENDBRANCH  41  42
ENDBRANCH  26  41
ENDBRANCH  25  26
ENDBRANCH   1  25
TORSDOF 17
ENDMDL
MODEL 7
REMARK VINA RESULT:    -6.247      5.321      9.181
REMARK INTER + INTRA:         -14.815
REMARK INTER:                 -12.357
REMARK INTRA:                  -2.457
REMARK UNBOUND:                -2.723
REMARK  Name = 121304016
REMARK  20 active torsions:
REMARK  status: ('A' for Active; 'I' for Inactive)
REMARK    1  A    between atoms: P_1  and  O_5
REMARK    2  A    between atoms: P_1  and  O_6
REMARK    3  A    between atoms: P_1  and  N_12
REMARK    4  A    between atoms: O_3  and  C_17
REMARK    5  A    between atoms: O_4  and  C_18
REMARK    6  A    between atoms: O_5  and  C_21
REMARK    7  A    between atoms: O_6  and  C_35
REMARK    8  A    between atoms: O_8  and  C_30
REMARK    9  A    between atoms: O_8  and  C_33
REMARK   10  A    between atoms: N_12  and  C_27
REMARK   11  A    between atoms: C_16  and  C_20
REMARK   12  A    between atoms: C_16  and  C_22
REMARK   13  A    between atoms: C_19  and  C_21
REMARK   14  A    between atoms: C_27  and  C_33
REMARK   15  A    between atoms: C_27  and  C_34
REMARK   16  A    between atoms: C_29  and  C_30
REMARK   17  A    between atoms: C_29  and  C_31
REMARK   18  A    between atoms: C_29  and  C_32
REMARK   19  A    between atoms: C_31  and  C_36
REMARK   20  A    between atoms: C_32  and  C_37
REMARK                            x       y       z     vdW  Elec       q    Type
REMARK                         _______ _______ _______ _____ _____    ______ ____
ROOT
ATOM      1  C   UNL     1     -21.120   7.227 -22.584  0.00  0.00    +0.000 C 
ENDROOT
BRANCH   1   6
ATOM      2  O   UNL     1     -22.882   8.393 -21.443  0.00  0.00    +0.000 OA
ATOM      3  C   UNL     1     -24.203   7.795 -21.489  0.00  0.00    +0.000 C 
ATOM      4  C   UNL     1     -23.930   6.277 -21.547  0.00  0.00    +0.000 C 
ATOM      5  C   UNL     1     -22.599   6.123 -20.837  0.00  0.00    +0.000 C 
ATOM      6  C   UNL     1     -21.867   7.383 -21.266  0.00  0.00    +0.000 C 
BRANCH   3  11
ATOM      7  N   UNL     1     -26.278   7.973 -22.939  0.00  0.00    +0.000 N 
ATOM      8  N   UNL     1     -27.066   7.197 -22.158  0.00  0.00    +0.000 NA
ATOM      9  N   UNL     1     -28.809   7.595 -23.773  0.00  0.00    +0.000 NA
ATOM     10  N   UNL     1     -28.557   8.899 -25.694  0.00  0.00    +0.000 N 
ATOM     11  C   UNL     1     -24.965   8.297 -22.713  0.00  0.00    +0.000 A 
ATOM     12  C   UNL     1     -24.545   9.103 -23.749  0.00  0.00    +0.000 A 
ATOM     13  C   UNL     1     -26.698   8.559 -24.104  0.00  0.00    +0.000 A 
ATOM     14  C   UNL     1     -25.641   9.270 -24.632  0.00  0.00    +0.000 A 
ATOM     15  C   UNL     1     -28.058   8.347 -24.538  0.00  0.00    +0.000 A 
ATOM     16  C   UNL     1     -28.277   7.053 -22.617  0.00  0.00    +0.000 A 
ATOM     17  H   UNL     1     -29.491   8.732 -25.957  0.00  0.00    +0.000 HD
ATOM     18  H   UNL     1     -27.981   9.463 -26.260  0.00  0.00    +0.000 HD
ENDBRANCH   3  11
BRANCH   5  19
ATOM     19  O   UNL     1     -22.795   6.150 -19.424  0.00  0.00    +0.000 OA
ATOM     20  H   UNL     1     -23.663   5.776 -19.211  0.00  0.00    +0.000 HD
ENDBRANCH   5  19
BRANCH   4  21
ATOM     21  O   UNL     1     -24.950   5.480 -20.977  0.00  0.00    +0.000 OA
ATOM     22  H   UNL     1     -24.624   4.575 -20.856  0.00  0.00    +0.000 HD
ENDBRANCH   4  21
BRANCH   3  24
ATOM     23  N   UNL     1     -25.472   8.517 -19.292  0.00  0.00    +0.000 NA
ATOM     24  C   UNL     1     -24.914   8.200 -20.258  0.00  0.00    +0.000 C 
ENDBRANCH   3  24
ENDBRANCH   1   6
BRANCH   1  25
ATOM     25  O   UNL     1     -19.842   6.669 -22.328  0.00  0.00    +0.000 OA
BRANCH  25  26
ATOM     26  P   UNL     1     -19.283   5.441 -23.241  0.00  0.00    +0.000 P 
ATOM     27  O   UNL     1     -20.401   4.488 -23.582  0.00  0.00    +0.000 OA
BRANCH  26  28
ATOM     28  N   UNL     1     -18.447   6.108 -24.506  0.00  0.00    +0.000 NA
ATOM     29  H   UNL     1     -18.111   5.337 -25.085  0.00  0.00    +0.000 HD
BRANCH  28  30
ATOM     30  C   UNL     1     -19.149   7.036 -25.390  0.00  0.00    +0.000 C 
ATOM     31  C   UNL     1     -18.146   7.960 -26.067  0.00  0.00    +0.000 C 
BRANCH  30  33
ATOM     32  O   UNL     1     -19.445   5.296 -27.075  0.00  0.00    +0.000 OA
ATOM     33  C   UNL     1     -19.908   6.223 -26.423  0.00  0.00    +0.000 C 
BRANCH  33  34
ATOM     34  O   UNL     1     -21.198   6.682 -26.511  0.00  0.00    +0.000 OA
BRANCH  34  35
ATOM     35  C   UNL     1     -21.478   7.887 -25.812  0.00  0.00    +0.000 C 
BRANCH  35  36
ATOM     36  C   UNL     1     -22.421   8.776 -26.639  0.00  0.00    +0.000 C 
BRANCH  36  37
ATOM     37  C   UNL     1     -22.941   8.062 -27.908  0.00  0.00    +0.000 C 
ATOM     38  C   UNL     1     -24.427   7.731 -27.900  0.00  0.00    +0.000 C 
ENDBRANCH  36  37
BRANCH  36  39
ATOM     39  C   UNL     1     -21.737  10.130 -26.915  0.00  0.00    +0.000 C 
ATOM     40  C   UNL     1     -22.561  11.334 -26.485  0.00  0.00    +0.000 C 
ENDBRANCH  36  39
ENDBRANCH  35  36
ENDBRANCH  34  35
ENDBRANCH  33  34
ENDBRANCH  30  33
ENDBRANCH  28  30
ENDBRANCH  26  28
BRANCH  26  41
ATOM     41  O   UNL     1     -18.197   4.778 -22.234  0.00  0.00    +0.000 OA
BRANCH  41  42
ATOM     42  C   UNL     1     -16.938   4.368 -22.581  0.00  0.00    +0.000 A 
ATOM     43  C   UNL     1     -15.826   5.102 -22.168  0.00  0.00    +0.000 A 
ATOM     44  C   UNL     1     -16.767   3.217 -23.349  0.00  0.00    +0.000 A 
ATOM     45  C   UNL     1     -14.543   4.684 -22.522  0.00  0.00    +0.000 A 
ATOM     46  C   UNL     1     -15.484   2.799 -23.703  0.00  0.00    +0.000 A 
ATOM     47  C   UNL     1     -14.372   3.532 -23.289  0.00  0.00    +0.000 A 
ENDBRANCH  41  42
ENDBRANCH  26  41
ENDBRANCH  25  26
ENDBRANCH   1  25
TORSDOF 17
ENDMDL
MODEL 8
REMARK VINA RESULT:    -6.242      5.315     10.511
REMARK INTER + INTRA:         -14.803
REMARK INTER:                 -12.392
REMARK INTRA:                  -2.411
REMARK UNBOUND:                -2.723
REMARK  Name = 121304016
REMARK  20 active torsions:
REMARK  status: ('A' for Active; 'I' for Inactive)
REMARK    1  A    between atoms: P_1  and  O_5
REMARK    2  A    between atoms: P_1  and  O_6
REMARK    3  A    between atoms: P_1  and  N_12
REMARK    4  A    between atoms: O_3  and  C_17
REMARK    5  A    between atoms: O_4  and  C_18
REMARK    6  A    between atoms: O_5  and  C_21
REMARK    7  A    between atoms: O_6  and  C_35
REMARK    8  A    between atoms: O_8  and  C_30
REMARK    9  A    between atoms: O_8  and  C_33
REMARK   10  A    between atoms: N_12  and  C_27
REMARK   11  A    between atoms: C_16  and  C_20
REMARK   12  A    between atoms: C_16  and  C_22
REMARK   13  A    between atoms: C_19  and  C_21
REMARK   14  A    between atoms: C_27  and  C_33
REMARK   15  A    between atoms: C_27  and  C_34
REMARK   16  A    between atoms: C_29  and  C_30
REMARK   17  A    between atoms: C_29  and  C_31
REMARK   18  A    between atoms: C_29  and  C_32
REMARK   19  A    between atoms: C_31  and  C_36
REMARK   20  A    between atoms: C_32  and  C_37
REMARK                            x       y       z     vdW  Elec       q    Type
REMARK                         _______ _______ _______ _____ _____    ______ ____
ROOT
ATOM      1  C   UNL     1     -21.146   6.380 -21.452  0.00  0.00    +0.000 C 
ENDROOT
BRANCH   1   6
ATOM      2  O   UNL     1     -23.426   6.415 -22.209  0.00  0.00    +0.000 OA
ATOM      3  C   UNL     1     -24.056   7.716 -22.335  0.00  0.00    +0.000 C 
ATOM      4  C   UNL     1     -22.899   8.663 -22.716  0.00  0.00    +0.000 C 
ATOM      5  C   UNL     1     -21.919   7.761 -23.442  0.00  0.00    +0.000 C 
ATOM      6  C   UNL     1     -22.059   6.461 -22.670  0.00  0.00    +0.000 C 
BRANCH   3  11
ATOM      7  N   UNL     1     -25.454   9.258 -20.884  0.00  0.00    +0.000 N 
ATOM      8  N   UNL     1     -25.694  10.181 -21.846  0.00  0.00    +0.000 NA
ATOM      9  N   UNL     1     -26.954  11.378 -20.177  0.00  0.00    +0.000 NA
ATOM     10  N   UNL     1     -27.241  10.663 -17.973  0.00  0.00    +0.000 N 
ATOM     11  C   UNL     1     -24.720   8.108 -21.017  0.00  0.00    +0.000 A 
ATOM     12  C   UNL     1     -24.727   7.459 -19.801  0.00  0.00    +0.000 A 
ATOM     13  C   UNL     1     -25.927   9.351 -19.601  0.00  0.00    +0.000 A 
ATOM     14  C   UNL     1     -25.491   8.246 -18.903  0.00  0.00    +0.000 A 
ATOM     15  C   UNL     1     -26.730  10.494 -19.237  0.00  0.00    +0.000 A 
ATOM     16  C   UNL     1     -26.424  11.181 -21.439  0.00  0.00    +0.000 A 
ATOM     17  H   UNL     1     -27.785  11.456 -17.762  0.00  0.00    +0.000 HD
ATOM     18  H   UNL     1     -27.065   9.990 -17.276  0.00  0.00    +0.000 HD
ENDBRANCH   3  11
BRANCH   5  19
ATOM     19  O   UNL     1     -22.348   7.559 -24.787  0.00  0.00    +0.000 OA
ATOM     20  H   UNL     1     -21.878   8.172 -25.372  0.00  0.00    +0.000 HD
ENDBRANCH   5  19
BRANCH   4  21
ATOM     21  O   UNL     1     -23.291   9.780 -23.490  0.00  0.00    +0.000 OA
ATOM     22  H   UNL     1     -22.710  10.530 -23.291  0.00  0.00    +0.000 HD
ENDBRANCH   4  21
BRANCH   3  24
ATOM     23  N   UNL     1     -25.881   7.526 -24.229  0.00  0.00    +0.000 NA
ATOM     24  C   UNL     1     -25.079   7.610 -23.397  0.00  0.00    +0.000 C 
ENDBRANCH   3  24
ENDBRANCH   1   6
BRANCH   1  25
ATOM     25  O   UNL     1     -19.799   6.322 -21.888  0.00  0.00    +0.000 OA
BRANCH  25  26
ATOM     26  P   UNL     1     -19.230   4.987 -22.627  0.00  0.00    +0.000 P 
ATOM     27  O   UNL     1     -20.200   3.843 -22.466  0.00  0.00    +0.000 OA
BRANCH  26  28
ATOM     28  N   UNL     1     -18.819   5.416 -24.173  0.00  0.00    +0.000 NA
ATOM     29  H   UNL     1     -19.576   5.107 -24.784  0.00  0.00    +0.000 HD
BRANCH  28  30
ATOM     30  C   UNL     1     -18.582   6.829 -24.462  0.00  0.00    +0.000 C 
ATOM     31  C   UNL     1     -17.086   7.112 -24.458  0.00  0.00    +0.000 C 
BRANCH  30  33
ATOM     32  O   UNL     1     -19.810   8.151 -26.104  0.00  0.00    +0.000 OA
ATOM     33  C   UNL     1     -19.182   7.140 -25.822  0.00  0.00    +0.000 C 
BRANCH  33  34
ATOM     34  O   UNL     1     -18.907   6.114 -26.690  0.00  0.00    +0.000 OA
BRANCH  34  35
ATOM     35  C   UNL     1     -20.033   5.418 -27.206  0.00  0.00    +0.000 C 
BRANCH  35  36
ATOM     36  C   UNL     1     -19.645   3.978 -27.578  0.00  0.00    +0.000 C 
BRANCH  36  37
ATOM     37  C   UNL     1     -20.610   2.933 -26.974  0.00  0.00    +0.000 C 
ATOM     38  C   UNL     1     -20.148   2.305 -25.666  0.00  0.00    +0.000 C 
ENDBRANCH  36  37
BRANCH  36  39
ATOM     39  C   UNL     1     -18.163   3.741 -27.227  0.00  0.00    +0.000 C 
ATOM     40  C   UNL     1     -17.225   3.832 -28.422  0.00  0.00    +0.000 C 
ENDBRANCH  36  39
ENDBRANCH  35  36
ENDBRANCH  34  35
ENDBRANCH  33  34
ENDBRANCH  30  33
ENDBRANCH  28  30
ENDBRANCH  26  28
BRANCH  26  41
ATOM     41  O   UNL     1     -17.852   4.743 -21.805  0.00  0.00    +0.000 OA
BRANCH  41  42
ATOM     42  C   UNL     1     -16.673   4.302 -22.344  0.00  0.00    +0.000 A 
ATOM     43  C   UNL     1     -16.661   3.180 -23.172  0.00  0.00    +0.000 A 
ATOM     44  C   UNL     1     -15.484   4.975 -22.064  0.00  0.00    +0.000 A 
ATOM     45  C   UNL     1     -15.460   2.731 -23.721  0.00  0.00    +0.000 A 
ATOM     46  C   UNL     1     -14.283   4.526 -22.613  0.00  0.00    +0.000 A 
ATOM     47  C   UNL     1     -14.270   3.405 -23.442  0.00  0.00    +0.000 A 
ENDBRANCH  41  42
ENDBRANCH  26  41
ENDBRANCH  25  26
ENDBRANCH   1  25
TORSDOF 17
ENDMDL
MODEL 9
REMARK VINA RESULT:    -6.208      6.611      9.670
REMARK INTER + INTRA:         -14.739
REMARK INTER:                 -11.347
REMARK INTRA:                  -3.392
REMARK UNBOUND:                -2.723
REMARK  Name = 121304016
REMARK  20 active torsions:
REMARK  status: ('A' for Active; 'I' for Inactive)
REMARK    1  A    between atoms: P_1  and  O_5
REMARK    2  A    between atoms: P_1  and  O_6
REMARK    3  A    between atoms: P_1  and  N_12
REMARK    4  A    between atoms: O_3  and  C_17
REMARK    5  A    between atoms: O_4  and  C_18
REMARK    6  A    between atoms: O_5  and  C_21
REMARK    7  A    between atoms: O_6  and  C_35
REMARK    8  A    between atoms: O_8  and  C_30
REMARK    9  A    between atoms: O_8  and  C_33
REMARK   10  A    between atoms: N_12  and  C_27
REMARK   11  A    between atoms: C_16  and  C_20
REMARK   12  A    between atoms: C_16  and  C_22
REMARK   13  A    between atoms: C_19  and  C_21
REMARK   14  A    between atoms: C_27  and  C_33
REMARK   15  A    between atoms: C_27  and  C_34
REMARK   16  A    between atoms: C_29  and  C_30
REMARK   17  A    between atoms: C_29  and  C_31
REMARK   18  A    between atoms: C_29  and  C_32
REMARK   19  A    between atoms: C_31  and  C_36
REMARK   20  A    between atoms: C_32  and  C_37
REMARK                            x       y       z     vdW  Elec       q    Type
REMARK                         _______ _______ _______ _____ _____    ______ ____
ROOT
ATOM      1  C   UNL     1     -19.491   2.442 -24.766  0.00  0.00    +0.000 C 
ENDROOT
BRANCH   1   6
ATOM      2  O   UNL     1     -19.057   4.756 -24.291  0.00  0.00    +0.000 OA
ATOM      3  C   UNL     1     -18.442   5.060 -23.012  0.00  0.00    +0.000 C 
ATOM      4  C   UNL     1     -17.556   3.832 -22.716  0.00  0.00    +0.000 C 
ATOM      5  C   UNL     1     -17.197   3.306 -24.093  0.00  0.00    +0.000 C 
ATOM      6  C   UNL     1     -18.474   3.572 -24.872  0.00  0.00    +0.000 C 
BRANCH   3  11
ATOM      7  N   UNL     1     -20.554   6.152 -22.125  0.00  0.00    +0.000 N 
ATOM      8  N   UNL     1     -20.779   6.931 -23.210  0.00  0.00    +0.000 NA
ATOM      9  N   UNL     1     -22.724   7.743 -22.042  0.00  0.00    +0.000 NA
ATOM     10  N   UNL     1     -23.375   7.039 -19.912  0.00  0.00    +0.000 N 
ATOM     11  C   UNL     1     -19.518   5.273 -21.949  0.00  0.00    +0.000 A 
ATOM     12  C   UNL     1     -19.666   4.688 -20.709  0.00  0.00    +0.000 A 
ATOM     13  C   UNL     1     -21.359   6.136 -21.016  0.00  0.00    +0.000 A 
ATOM     14  C   UNL     1     -20.832   5.235 -20.117  0.00  0.00    +0.000 A 
ATOM     15  C   UNL     1     -22.519   6.995 -20.986  0.00  0.00    +0.000 A 
ATOM     16  C   UNL     1     -21.843   7.677 -23.106  0.00  0.00    +0.000 A 
ATOM     17  H   UNL     1     -24.157   7.639 -19.929  0.00  0.00    +0.000 HD
ATOM     18  H   UNL     1     -23.209   6.472 -19.125  0.00  0.00    +0.000 HD
ENDBRANCH   3  11
BRANCH   5  19
ATOM     19  O   UNL     1     -16.137   4.081 -24.648  0.00  0.00    +0.000 OA
ATOM     20  H   UNL     1     -15.650   3.547 -25.294  0.00  0.00    +0.000 HD
ENDBRANCH   5  19
BRANCH   4  21
ATOM     21  O   UNL     1     -16.419   4.112 -21.924  0.00  0.00    +0.000 OA
ATOM     22  H   UNL     1     -15.869   4.774 -22.370  0.00  0.00    +0.000 HD
ENDBRANCH   4  21
BRANCH   3  24
ATOM     23  N   UNL     1     -17.043   7.275 -23.317  0.00  0.00    +0.000 NA
ATOM     24  C   UNL     1     -17.658   6.301 -23.183  0.00  0.00    +0.000 C 
ENDBRANCH   3  24
ENDBRANCH   1   6
BRANCH   1  25
ATOM     25  O   UNL     1     -20.288   2.426 -25.939  0.00  0.00    +0.000 OA
BRANCH  25  26
ATOM     26  P   UNL     1     -21.631   3.343 -26.033  0.00  0.00    +0.000 P 
ATOM     27  O   UNL     1     -22.756   2.563 -26.666  0.00  0.00    +0.000 OA
BRANCH  26  28
ATOM     28  N   UNL     1     -21.905   3.973 -24.525  0.00  0.00    +0.000 NA
ATOM     29  H   UNL     1     -22.120   4.963 -24.646  0.00  0.00    +0.000 HD
BRANCH  28  30
ATOM     30  C   UNL     1     -22.975   3.395 -23.714  0.00  0.00    +0.000 C 
ATOM     31  C   UNL     1     -22.396   2.834 -22.422  0.00  0.00    +0.000 C 
BRANCH  30  33
ATOM     32  O   UNL     1     -24.231   5.441 -24.144  0.00  0.00    +0.000 OA
ATOM     33  C   UNL     1     -23.986   4.487 -23.418  0.00  0.00    +0.000 C 
BRANCH  33  34
ATOM     34  O   UNL     1     -24.588   4.239 -22.210  0.00  0.00    +0.000 OA
BRANCH  34  35
ATOM     35  C   UNL     1     -25.911   3.724 -22.270  0.00  0.00    +0.000 C 
BRANCH  35  36
ATOM     36  C   UNL     1     -26.805   4.431 -21.238  0.00  0.00    +0.000 C 
BRANCH  36  37
ATOM     37  C   UNL     1     -28.256   3.899 -21.253  0.00  0.00    +0.000 C 
ATOM     38  C   UNL     1     -28.399   2.403 -21.012  0.00  0.00    +0.000 C 
ENDBRANCH  36  37
BRANCH  36  39
ATOM     39  C   UNL     1     -26.693   5.957 -21.425  0.00  0.00    +0.000 C 
ATOM     40  C   UNL     1     -26.896   6.750 -20.142  0.00  0.00    +0.000 C 
ENDBRANCH  36  39
ENDBRANCH  35  36
ENDBRANCH  34  35
ENDBRANCH  33  34
ENDBRANCH  30  33
ENDBRANCH  28  30
ENDBRANCH  26  28
BRANCH  26  41
ATOM     41  O   UNL     1     -21.113   4.553 -26.981  0.00  0.00    +0.000 OA
BRANCH  41  42
ATOM     42  C   UNL     1     -21.883   5.587 -27.442  0.00  0.00    +0.000 A 
ATOM     43  C   UNL     1     -21.969   6.772 -26.713  0.00  0.00    +0.000 A 
ATOM     44  C   UNL     1     -22.582   5.454 -28.642  0.00  0.00    +0.000 A 
ATOM     45  C   UNL     1     -22.754   7.825 -27.183  0.00  0.00    +0.000 A 
ATOM     46  C   UNL     1     -23.367   6.507 -29.112  0.00  0.00    +0.000 A 
ATOM     47  C   UNL     1     -23.453   7.693 -28.383  0.00  0.00    +0.000 A 
ENDBRANCH  41  42
ENDBRANCH  26  41
ENDBRANCH  25  26
ENDBRANCH   1  25
TORSDOF 17
ENDMDL
