MODEL 1
REMARK VINA RESULT:    -7.092      0.000      0.000
REMARK INTER + INTRA:         -18.712
REMARK INTER:                 -14.762
REMARK INTRA:                  -3.951
REMARK UNBOUND:                -3.951
REMARK  Name = 392622
REMARK  24 active torsions:
REMARK  status: ('A' for Active; 'I' for Inactive)
REMARK    1  A    between atoms: O_3  and  C_16
REMARK    2  A    between atoms: O_5  and  C_29
REMARK    3  A    between atoms: O_5  and  C_41
REMARK    4  A    between atoms: N_8  and  C_14
REMARK    5  A    between atoms: N_9  and  C_17
REMARK    6  A    between atoms: N_10  and  C_20
REMARK    7  A    between atoms: N_11  and  C_39
REMARK    8  A    between atoms: N_11  and  C_40
REMARK    9  A    between atoms: C_14  and  C_15
REMARK   10  A    between atoms: C_14  and  C_18
REMARK   11  A    between atoms: C_15  and  C_16
REMARK   12  A    between atoms: C_16  and  C_17
REMARK   13  A    between atoms: C_17  and  C_19
REMARK   14  A    between atoms: C_18  and  C_23
REMARK   15  A    between atoms: C_19  and  C_24
REMARK   16  A    between atoms: C_20  and  C_21
REMARK   17  A    between atoms: C_20  and  C_22
REMARK   18  A    between atoms: C_21  and  C_25
REMARK   19  A    between atoms: C_21  and  C_26
REMARK   20  A    between atoms: C_39  and  C_42
REMARK   21  A    between atoms: C_41  and  C_43
REMARK   22  A    between atoms: C_44  and  C_46
REMARK   23  A    between atoms: C_46  and  C_47
REMARK   24  A    between atoms: C_46  and  C_48
REMARK                            x       y       z     vdW  Elec       q    Type
REMARK                         _______ _______ _______ _____ _____    ______ ____
ROOT
ATOM      1  C   UNL     1     -19.846   6.723 -24.577  0.00  0.00    +0.000 C 
ENDROOT
BRANCH   1   3
ATOM      2  O   UNL     1     -19.868   7.455 -21.817  0.00  0.00    +0.000 OA
ATOM      3  N   UNL     1     -20.546   5.994 -23.512  0.00  0.00    +0.000 N 
ATOM      4  C   UNL     1     -20.571   6.462 -22.155  0.00  0.00    +0.000 C 
ATOM      5  H   UNL     1     -21.013   5.157 -23.735  0.00  0.00    +0.000 HD
BRANCH   4   6
ATOM      6  C   UNL     1     -21.483   5.802 -21.145  0.00  0.00    +0.000 C 
BRANCH   6   8
ATOM      7  O   UNL     1     -23.611   7.266 -19.887  0.00  0.00    +0.000 OA
ATOM      8  N   UNL     1     -22.883   5.852 -21.594  0.00  0.00    +0.000 N 
ATOM      9  N   UNL     1     -25.302   6.038 -20.947  0.00  0.00    +0.000 N 
ATOM     10  C   UNL     1     -23.919   6.425 -20.777  0.00  0.00    +0.000 C 
ATOM     11  C   UNL     1     -25.662   4.909 -21.812  0.00  0.00    +0.000 C 
ATOM     12  H   UNL     1     -23.116   5.484 -22.476  0.00  0.00    +0.000 HD
BRANCH   9  13
ATOM     13  C   UNL     1     -26.350   6.701 -20.155  0.00  0.00    +0.000 C 
BRANCH  13  16
ATOM     14  S   UNL     1     -27.516   9.901 -22.195  0.00  0.00    +0.000 S 
ATOM     15  N   UNL     1     -26.660   9.163 -19.952  0.00  0.00    +0.000 NA
ATOM     16  C   UNL     1     -26.733   8.043 -20.722  0.00  0.00    +0.000 A 
ATOM     17  C   UNL     1     -27.049  10.273 -20.618  0.00  0.00    +0.000 A 
ATOM     18  C   UNL     1     -27.193   8.259 -22.025  0.00  0.00    +0.000 A 
BRANCH  17  19
ATOM     19  C   UNL     1     -27.114  11.633 -19.980  0.00  0.00    +0.000 C 
ATOM     20  C   UNL     1     -27.047  11.511 -18.454  0.00  0.00    +0.000 C 
ATOM     21  C   UNL     1     -28.374  12.388 -20.412  0.00  0.00    +0.000 C 
ENDBRANCH  17  19
ENDBRANCH  13  16
ENDBRANCH   9  13
ENDBRANCH   6   8
BRANCH   6  22
ATOM     22  C   UNL     1     -21.072   4.333 -20.845  0.00  0.00    +0.000 C 
ATOM     23  C   UNL     1     -21.907   3.302 -21.624  0.00  0.00    +0.000 C 
ATOM     24  C   UNL     1     -19.572   4.096 -21.091  0.00  0.00    +0.000 C 
ENDBRANCH   6  22
ENDBRANCH   4   6
ENDBRANCH   1   3
BRANCH   1  25
ATOM     25  C   UNL     1     -18.781   5.809 -25.225  0.00  0.00    +0.000 C 
BRANCH  25  26
ATOM     26  C   UNL     1     -17.656   5.504 -24.266  0.00  0.00    +0.000 A 
ATOM     27  C   UNL     1     -16.944   6.551 -23.654  0.00  0.00    +0.000 A 
ATOM     28  C   UNL     1     -17.340   4.173 -23.933  0.00  0.00    +0.000 A 
ATOM     29  C   UNL     1     -15.929   6.269 -22.731  0.00  0.00    +0.000 A 
ATOM     30  C   UNL     1     -16.319   3.898 -23.018  0.00  0.00    +0.000 A 
ATOM     31  C   UNL     1     -15.615   4.943 -22.417  0.00  0.00    +0.000 A 
ENDBRANCH  25  26
ENDBRANCH   1  25
BRANCH   1  32
ATOM     32  C   UNL     1     -20.902   7.225 -25.592  0.00  0.00    +0.000 C 
BRANCH  32  33
ATOM     33  C   UNL     1     -21.610   8.577 -25.316  0.00  0.00    +0.000 C 
BRANCH  33  34
ATOM     34  O   UNL     1     -22.016   8.647 -23.972  0.00  0.00    +0.000 OA
ATOM     35  H   UNL     1     -21.716   7.853 -23.503  0.00  0.00    +0.000 HD
ENDBRANCH  33  34
BRANCH  33  36
ATOM     36  C   UNL     1     -22.758   9.008 -26.283  0.00  0.00    +0.000 C 
BRANCH  36  38
ATOM     37  O   UNL     1     -24.715  10.206 -24.520  0.00  0.00    +0.000 OA
ATOM     38  N   UNL     1     -23.062  10.441 -26.161  0.00  0.00    +0.000 N 
ATOM     39  C   UNL     1     -24.158  10.939 -25.383  0.00  0.00    +0.000 C 
ATOM     40  H   UNL     1     -22.490  11.087 -26.633  0.00  0.00    +0.000 HD
BRANCH  39  41
ATOM     41  O   UNL     1     -24.623  12.238 -25.615  0.00  0.00    +0.000 OA
BRANCH  41  42
ATOM     42  C   UNL     1     -25.669  12.544 -26.536  0.00  0.00    +0.000 C 
BRANCH  42  45
ATOM     43  S   UNL     1     -27.049  13.190 -24.160  0.00  0.00    +0.000 S 
ATOM     44  N   UNL     1     -29.139  13.518 -25.516  0.00  0.00    +0.000 NA
ATOM     45  C   UNL     1     -26.926  12.907 -25.811  0.00  0.00    +0.000 A 
ATOM     46  C   UNL     1     -28.167  13.144 -26.390  0.00  0.00    +0.000 A 
ATOM     47  C   UNL     1     -28.684  13.585 -24.245  0.00  0.00    +0.000 A 
ENDBRANCH  42  45
ENDBRANCH  41  42
ENDBRANCH  39  41
ENDBRANCH  36  38
BRANCH  36  48
ATOM     48  C   UNL     1     -22.528   8.628 -27.766  0.00  0.00    +0.000 C 
BRANCH  48  49
ATOM     49  C   UNL     1     -23.611   7.703 -28.262  0.00  0.00    +0.000 A 
ATOM     50  C   UNL     1     -23.339   6.763 -29.274  0.00  0.00    +0.000 A 
ATOM     51  C   UNL     1     -24.924   7.828 -27.778  0.00  0.00    +0.000 A 
ATOM     52  C   UNL     1     -24.362   5.956 -29.781  0.00  0.00    +0.000 A 
ATOM     53  C   UNL     1     -25.945   7.020 -28.291  0.00  0.00    +0.000 A 
ATOM     54  C   UNL     1     -25.662   6.082 -29.286  0.00  0.00    +0.000 A 
ENDBRANCH  48  49
ENDBRANCH  36  48
ENDBRANCH  33  36
ENDBRANCH  32  33
ENDBRANCH   1  32
TORSDOF 19
ENDMDL
MODEL 2
REMARK VINA RESULT:    -6.930      2.869     10.463
REMARK INTER + INTRA:         -18.374
REMARK INTER:                 -14.856
REMARK INTRA:                  -3.519
REMARK UNBOUND:                -3.951
REMARK  Name = 392622
REMARK  24 active torsions:
REMARK  status: ('A' for Active; 'I' for Inactive)
REMARK    1  A    between atoms: O_3  and  C_16
REMARK    2  A    between atoms: O_5  and  C_29
REMARK    3  A    between atoms: O_5  and  C_41
REMARK    4  A    between atoms: N_8  and  C_14
REMARK    5  A    between atoms: N_9  and  C_17
REMARK    6  A    between atoms: N_10  and  C_20
REMARK    7  A    between atoms: N_11  and  C_39
REMARK    8  A    between atoms: N_11  and  C_40
REMARK    9  A    between atoms: C_14  and  C_15
REMARK   10  A    between atoms: C_14  and  C_18
REMARK   11  A    between atoms: C_15  and  C_16
REMARK   12  A    between atoms: C_16  and  C_17
REMARK   13  A    between atoms: C_17  and  C_19
REMARK   14  A    between atoms: C_18  and  C_23
REMARK   15  A    between atoms: C_19  and  C_24
REMARK   16  A    between atoms: C_20  and  C_21
REMARK   17  A    between atoms: C_20  and  C_22
REMARK   18  A    between atoms: C_21  and  C_25
REMARK   19  A    between atoms: C_21  and  C_26
REMARK   20  A    between atoms: C_39  and  C_42
REMARK   21  A    between atoms: C_41  and  C_43
REMARK   22  A    between atoms: C_44  and  C_46
REMARK   23  A    between atoms: C_46  and  C_47
REMARK   24  A    between atoms: C_46  and  C_48
REMARK                            x       y       z     vdW  Elec       q    Type
REMARK                         _______ _______ _______ _____ _____    ______ ____
ROOT
ATOM      1  C   UNL     1     -27.978  12.108 -18.664  0.00  0.00    +0.000 C 
ENDROOT
BRANCH   1   3
ATOM      2  O   UNL     1     -27.242  13.867 -20.790  0.00  0.00    +0.000 OA
ATOM      3  N   UNL     1     -28.750  12.321 -19.894  0.00  0.00    +0.000 N 
ATOM      4  C   UNL     1     -28.282  13.169 -20.954  0.00  0.00    +0.000 C 
ATOM      5  H   UNL     1     -29.617  11.868 -19.997  0.00  0.00    +0.000 HD
BRANCH   4   6
ATOM      6  C   UNL     1     -28.999  13.182 -22.285  0.00  0.00    +0.000 C 
BRANCH   6   8
ATOM      7  O   UNL     1     -26.816  13.821 -24.040  0.00  0.00    +0.000 OA
ATOM      8  N   UNL     1     -28.355  12.263 -23.235  0.00  0.00    +0.000 N 
ATOM      9  N   UNL     1     -27.192  11.982 -25.442  0.00  0.00    +0.000 N 
ATOM     10  C   UNL     1     -27.425  12.731 -24.227  0.00  0.00    +0.000 C 
ATOM     11  C   UNL     1     -28.041  10.837 -25.790  0.00  0.00    +0.000 C 
ATOM     12  H   UNL     1     -28.566  11.303 -23.190  0.00  0.00    +0.000 HD
BRANCH   9  13
ATOM     13  C   UNL     1     -26.175  12.441 -26.401  0.00  0.00    +0.000 C 
BRANCH  13  16
ATOM     14  S   UNL     1     -22.466  11.372 -25.471  0.00  0.00    +0.000 S 
ATOM     15  N   UNL     1     -24.602  10.512 -26.476  0.00  0.00    +0.000 NA
ATOM     16  C   UNL     1     -24.828  11.814 -26.151  0.00  0.00    +0.000 A 
ATOM     17  C   UNL     1     -23.345  10.116 -26.175  0.00  0.00    +0.000 A 
ATOM     18  C   UNL     1     -23.736  12.470 -25.573  0.00  0.00    +0.000 A 
BRANCH  17  19
ATOM     19  C   UNL     1     -22.856   8.710 -26.384  0.00  0.00    +0.000 C 
ATOM     20  C   UNL     1     -21.350   8.622 -26.111  0.00  0.00    +0.000 C 
ATOM     21  C   UNL     1     -23.184   8.214 -27.796  0.00  0.00    +0.000 C 
ENDBRANCH  17  19
ENDBRANCH  13  16
ENDBRANCH   9  13
ENDBRANCH   6   8
BRANCH   6  22
ATOM     22  C   UNL     1     -30.508  12.836 -22.148  0.00  0.00    +0.000 C 
ATOM     23  C   UNL     1     -31.359  14.026 -21.672  0.00  0.00    +0.000 C 
ATOM     24  C   UNL     1     -31.085  12.260 -23.453  0.00  0.00    +0.000 C 
ENDBRANCH   6  22
ENDBRANCH   4   6
ENDBRANCH   1   3
BRANCH   1  25
ATOM     25  C   UNL     1     -28.811  12.553 -17.440  0.00  0.00    +0.000 C 
BRANCH  25  26
ATOM     26  C   UNL     1     -28.173  13.724 -16.732  0.00  0.00    +0.000 A 
ATOM     27  C   UNL     1     -28.234  13.822 -15.330  0.00  0.00    +0.000 A 
ATOM     28  C   UNL     1     -27.469  14.702 -17.459  0.00  0.00    +0.000 A 
ATOM     29  C   UNL     1     -27.605  14.885 -14.670  0.00  0.00    +0.000 A 
ATOM     30  C   UNL     1     -26.852  15.767 -16.795  0.00  0.00    +0.000 A 
ATOM     31  C   UNL     1     -26.918  15.859 -15.402  0.00  0.00    +0.000 A 
ENDBRANCH  25  26
ENDBRANCH   1  25
BRANCH   1  32
ATOM     32  C   UNL     1     -27.571  10.616 -18.602  0.00  0.00    +0.000 C 
BRANCH  32  33
ATOM     33  C   UNL     1     -26.200  10.197 -19.194  0.00  0.00    +0.000 C 
BRANCH  33  34
ATOM     34  O   UNL     1     -25.670  11.238 -19.974  0.00  0.00    +0.000 OA
ATOM     35  H   UNL     1     -24.705  11.150 -20.019  0.00  0.00    +0.000 HD
ENDBRANCH  33  34
BRANCH  33  36
ATOM     36  C   UNL     1     -26.117   8.826 -19.937  0.00  0.00    +0.000 C 
BRANCH  36  38
ATOM     37  O   UNL     1     -24.020   9.161 -21.903  0.00  0.00    +0.000 OA
ATOM     38  N   UNL     1     -24.763   8.256 -19.877  0.00  0.00    +0.000 N 
ATOM     39  C   UNL     1     -23.837   8.335 -20.968  0.00  0.00    +0.000 C 
ATOM     40  H   UNL     1     -24.480   7.801 -19.052  0.00  0.00    +0.000 HD
BRANCH  39  41
ATOM     41  O   UNL     1     -22.745   7.461 -20.998  0.00  0.00    +0.000 OA
BRANCH  41  42
ATOM     42  C   UNL     1     -21.541   7.735 -21.713  0.00  0.00    +0.000 C 
BRANCH  42  45
ATOM     43  S   UNL     1     -20.703   5.273 -20.615  0.00  0.00    +0.000 S 
ATOM     44  N   UNL     1     -19.027   5.065 -22.475  0.00  0.00    +0.000 NA
ATOM     45  C   UNL     1     -20.641   6.539 -21.716  0.00  0.00    +0.000 A 
ATOM     46  C   UNL     1     -19.670   6.248 -22.666  0.00  0.00    +0.000 A 
ATOM     47  C   UNL     1     -19.477   4.410 -21.382  0.00  0.00    +0.000 A 
ENDBRANCH  42  45
ENDBRANCH  41  42
ENDBRANCH  39  41
ENDBRANCH  36  38
BRANCH  36  48
ATOM     48  C   UNL     1     -27.165   7.782 -19.482  0.00  0.00    +0.000 C 
BRANCH  48  49
ATOM     49  C   UNL     1     -27.363   6.719 -20.534  0.00  0.00    +0.000 A 
ATOM     50  C   UNL     1     -28.289   6.912 -21.577  0.00  0.00    +0.000 A 
ATOM     51  C   UNL     1     -26.687   5.492 -20.436  0.00  0.00    +0.000 A 
ATOM     52  C   UNL     1     -28.522   5.897 -22.510  0.00  0.00    +0.000 A 
ATOM     53  C   UNL     1     -26.925   4.479 -21.371  0.00  0.00    +0.000 A 
ATOM     54  C   UNL     1     -27.836   4.684 -22.409  0.00  0.00    +0.000 A 
ENDBRANCH  48  49
ENDBRANCH  36  48
ENDBRANCH  33  36
ENDBRANCH  32  33
ENDBRANCH   1  32
TORSDOF 19
ENDMDL
MODEL 3
REMARK VINA RESULT:    -6.899      5.023     13.089
REMARK INTER + INTRA:         -18.311
REMARK INTER:                 -14.603
REMARK INTRA:                  -3.708
REMARK UNBOUND:                -3.951
REMARK  Name = 392622
REMARK  24 active torsions:
REMARK  status: ('A' for Active; 'I' for Inactive)
REMARK    1  A    between atoms: O_3  and  C_16
REMARK    2  A    between atoms: O_5  and  C_29
REMARK    3  A    between atoms: O_5  and  C_41
REMARK    4  A    between atoms: N_8  and  C_14
REMARK    5  A    between atoms: N_9  and  C_17
REMARK    6  A    between atoms: N_10  and  C_20
REMARK    7  A    between atoms: N_11  and  C_39
REMARK    8  A    between atoms: N_11  and  C_40
REMARK    9  A    between atoms: C_14  and  C_15
REMARK   10  A    between atoms: C_14  and  C_18
REMARK   11  A    between atoms: C_15  and  C_16
REMARK   12  A    between atoms: C_16  and  C_17
REMARK   13  A    between atoms: C_17  and  C_19
REMARK   14  A    between atoms: C_18  and  C_23
REMARK   15  A    between atoms: C_19  and  C_24
REMARK   16  A    between atoms: C_20  and  C_21
REMARK   17  A    between atoms: C_20  and  C_22
REMARK   18  A    between atoms: C_21  and  C_25
REMARK   19  A    between atoms: C_21  and  C_26
REMARK   20  A    between atoms: C_39  and  C_42
REMARK   21  A    between atoms: C_41  and  C_43
REMARK   22  A    between atoms: C_44  and  C_46
REMARK   23  A    between atoms: C_46  and  C_47
REMARK   24  A    between atoms: C_46  and  C_48
REMARK                            x       y       z     vdW  Elec       q    Type
REMARK                         _______ _______ _______ _____ _____    ______ ____
ROOT
ATOM      1  C   UNL     1     -28.982  17.435 -19.479  0.00  0.00    +0.000 C 
ENDROOT
BRANCH   1   3
ATOM      2  O   UNL     1     -27.742  18.574 -21.786  0.00  0.00    +0.000 OA
ATOM      3  N   UNL     1     -29.469  17.302 -20.857  0.00  0.00    +0.000 N 
ATOM      4  C   UNL     1     -28.754  17.843 -21.978  0.00  0.00    +0.000 C 
ATOM      5  H   UNL     1     -30.315  16.825 -21.019  0.00  0.00    +0.000 HD
BRANCH   4   6
ATOM      6  C   UNL     1     -29.176  17.491 -23.386  0.00  0.00    +0.000 C 
BRANCH   6   8
ATOM      7  O   UNL     1     -27.744  15.129 -22.595  0.00  0.00    +0.000 OA
ATOM      8  N   UNL     1     -29.680  16.111 -23.451  0.00  0.00    +0.000 N 
ATOM      9  N   UNL     1     -29.143  13.682 -23.793  0.00  0.00    +0.000 N 
ATOM     10  C   UNL     1     -28.814  14.980 -23.247  0.00  0.00    +0.000 C 
ATOM     11  C   UNL     1     -30.257  13.526 -24.736  0.00  0.00    +0.000 C 
ATOM     12  H   UNL     1     -30.633  15.957 -23.639  0.00  0.00    +0.000 HD
BRANCH   9  13
ATOM     13  C   UNL     1     -28.283  12.525 -23.499  0.00  0.00    +0.000 C 
BRANCH  13  16
ATOM     14  S   UNL     1     -26.010  11.658 -26.637  0.00  0.00    +0.000 S 
ATOM     15  N   UNL     1     -25.973  12.787 -24.393  0.00  0.00    +0.000 NA
ATOM     16  C   UNL     1     -27.235  12.306 -24.560  0.00  0.00    +0.000 A 
ATOM     17  C   UNL     1     -25.172  12.506 -25.444  0.00  0.00    +0.000 A 
ATOM     18  C   UNL     1     -27.449  11.633 -25.768  0.00  0.00    +0.000 A 
BRANCH  17  19
ATOM     19  C   UNL     1     -23.745  12.972 -25.535  0.00  0.00    +0.000 C 
ATOM     20  C   UNL     1     -23.318  13.102 -27.001  0.00  0.00    +0.000 C 
ATOM     21  C   UNL     1     -22.805  12.030 -24.775  0.00  0.00    +0.000 C 
ENDBRANCH  17  19
ENDBRANCH  13  16
ENDBRANCH   9  13
ENDBRANCH   6   8
BRANCH   6  22
ATOM     22  C   UNL     1     -30.240  18.474 -23.950  0.00  0.00    +0.000 C 
ATOM     23  C   UNL     1     -31.354  17.767 -24.743  0.00  0.00    +0.000 C 
ATOM     24  C   UNL     1     -30.851  19.352 -22.845  0.00  0.00    +0.000 C 
ENDBRANCH   6  22
ENDBRANCH   4   6
ENDBRANCH   1   3
BRANCH   1  25
ATOM     25  C   UNL     1     -29.467  18.774 -18.879  0.00  0.00    +0.000 C 
BRANCH  25  26
ATOM     26  C   UNL     1     -28.393  19.427 -18.042  0.00  0.00    +0.000 A 
ATOM     27  C   UNL     1     -27.065  19.472 -18.504  0.00  0.00    +0.000 A 
ATOM     28  C   UNL     1     -28.715  20.041 -16.817  0.00  0.00    +0.000 A 
ATOM     29  C   UNL     1     -26.077  20.115 -17.749  0.00  0.00    +0.000 A 
ATOM     30  C   UNL     1     -27.721  20.674 -16.063  0.00  0.00    +0.000 A 
ATOM     31  C   UNL     1     -26.405  20.712 -16.527  0.00  0.00    +0.000 A 
ENDBRANCH  25  26
ENDBRANCH   1  25
BRANCH   1  32
ATOM     32  C   UNL     1     -29.469  16.206 -18.673  0.00  0.00    +0.000 C 
BRANCH  32  33
ATOM     33  C   UNL     1     -28.901  14.809 -19.037  0.00  0.00    +0.000 C 
BRANCH  33  34
ATOM     34  O   UNL     1     -29.943  13.871 -19.131  0.00  0.00    +0.000 OA
ATOM     35  H   UNL     1     -29.843  13.356 -19.947  0.00  0.00    +0.000 HD
ENDBRANCH  33  34
BRANCH  33  36
ATOM     36  C   UNL     1     -27.713  14.262 -18.185  0.00  0.00    +0.000 C 
BRANCH  36  38
ATOM     37  O   UNL     1     -28.319  11.433 -18.252  0.00  0.00    +0.000 OA
ATOM     38  N   UNL     1     -26.961  13.224 -18.904  0.00  0.00    +0.000 N 
ATOM     39  C   UNL     1     -27.231  11.825 -18.755  0.00  0.00    +0.000 C 
ATOM     40  H   UNL     1     -26.241  13.501 -19.514  0.00  0.00    +0.000 HD
BRANCH  39  41
ATOM     41  O   UNL     1     -26.257  10.898 -19.145  0.00  0.00    +0.000 OA
BRANCH  41  42
ATOM     42  C   UNL     1     -26.422  10.005 -20.246  0.00  0.00    +0.000 C 
BRANCH  42  45
ATOM     43  S   UNL     1     -24.147   8.786 -21.389  0.00  0.00    +0.000 S 
ATOM     44  N   UNL     1     -24.084   7.188 -19.449  0.00  0.00    +0.000 NA
ATOM     45  C   UNL     1     -25.360   8.951 -20.238  0.00  0.00    +0.000 A 
ATOM     46  C   UNL     1     -25.159   7.996 -19.249  0.00  0.00    +0.000 A 
ATOM     47  C   UNL     1     -23.424   7.491 -20.589  0.00  0.00    +0.000 A 
ENDBRANCH  42  45
ENDBRANCH  41  42
ENDBRANCH  39  41
ENDBRANCH  36  38
BRANCH  36  48
ATOM     48  C   UNL     1     -26.754  15.350 -17.644  0.00  0.00    +0.000 C 
BRANCH  48  49
ATOM     49  C   UNL     1     -27.078  15.694 -16.212  0.00  0.00    +0.000 A 
ATOM     50  C   UNL     1     -26.957  17.019 -15.751  0.00  0.00    +0.000 A 
ATOM     51  C   UNL     1     -27.422  14.680 -15.302  0.00  0.00    +0.000 A 
ATOM     52  C   UNL     1     -27.190  17.323 -14.407  0.00  0.00    +0.000 A 
ATOM     53  C   UNL     1     -27.652  14.989 -13.956  0.00  0.00    +0.000 A 
ATOM     54  C   UNL     1     -27.542  16.309 -13.512  0.00  0.00    +0.000 A 
ENDBRANCH  48  49
ENDBRANCH  36  48
ENDBRANCH  33  36
ENDBRANCH  32  33
ENDBRANCH   1  32
TORSDOF 19
ENDMDL
MODEL 4
REMARK VINA RESULT:    -6.812      3.559      7.695
REMARK INTER + INTRA:         -18.129
REMARK INTER:                 -14.983
REMARK INTRA:                  -3.146
REMARK UNBOUND:                -3.951
REMARK  Name = 392622
REMARK  24 active torsions:
REMARK  status: ('A' for Active; 'I' for Inactive)
REMARK    1  A    between atoms: O_3  and  C_16
REMARK    2  A    between atoms: O_5  and  C_29
REMARK    3  A    between atoms: O_5  and  C_41
REMARK    4  A    between atoms: N_8  and  C_14
REMARK    5  A    between atoms: N_9  and  C_17
REMARK    6  A    between atoms: N_10  and  C_20
REMARK    7  A    between atoms: N_11  and  C_39
REMARK    8  A    between atoms: N_11  and  C_40
REMARK    9  A    between atoms: C_14  and  C_15
REMARK   10  A    between atoms: C_14  and  C_18
REMARK   11  A    between atoms: C_15  and  C_16
REMARK   12  A    between atoms: C_16  and  C_17
REMARK   13  A    between atoms: C_17  and  C_19
REMARK   14  A    between atoms: C_18  and  C_23
REMARK   15  A    between atoms: C_19  and  C_24
REMARK   16  A    between atoms: C_20  and  C_21
REMARK   17  A    between atoms: C_20  and  C_22
REMARK   18  A    between atoms: C_21  and  C_25
REMARK   19  A    between atoms: C_21  and  C_26
REMARK   20  A    between atoms: C_39  and  C_42
REMARK   21  A    between atoms: C_41  and  C_43
REMARK   22  A    between atoms: C_44  and  C_46
REMARK   23  A    between atoms: C_46  and  C_47
REMARK   24  A    between atoms: C_46  and  C_48
REMARK                            x       y       z     vdW  Elec       q    Type
REMARK                         _______ _______ _______ _____ _____    ______ ____
ROOT
ATOM      1  C   UNL     1     -24.791   8.309 -22.823  0.00  0.00    +0.000 C 
ENDROOT
BRANCH   1   3
ATOM      2  O   UNL     1     -26.373   9.010 -25.096  0.00  0.00    +0.000 OA
ATOM      3  N   UNL     1     -24.425   9.306 -23.837  0.00  0.00    +0.000 N 
ATOM      4  C   UNL     1     -25.304   9.658 -24.917  0.00  0.00    +0.000 C 
ATOM      5  H   UNL     1     -23.547   9.748 -23.776  0.00  0.00    +0.000 HD
BRANCH   4   6
ATOM      6  C   UNL     1     -24.979  10.840 -25.801  0.00  0.00    +0.000 C 
BRANCH   6   8
ATOM      7  O   UNL     1     -25.651  12.020 -23.270  0.00  0.00    +0.000 OA
ATOM      8  N   UNL     1     -25.937  11.934 -25.583  0.00  0.00    +0.000 N 
ATOM      9  N   UNL     1     -27.637  12.979 -24.059  0.00  0.00    +0.000 N 
ATOM     10  C   UNL     1     -26.374  12.304 -24.264  0.00  0.00    +0.000 C 
ATOM     11  C   UNL     1     -28.596  13.123 -25.161  0.00  0.00    +0.000 C 
ATOM     12  H   UNL     1     -26.288  12.426 -26.361  0.00  0.00    +0.000 HD
BRANCH   9  13
ATOM     13  C   UNL     1     -28.021  13.420 -22.709  0.00  0.00    +0.000 C 
BRANCH  13  16
ATOM     14  S   UNL     1     -29.114  17.228 -22.454  0.00  0.00    +0.000 S 
ATOM     15  N   UNL     1     -27.101  15.730 -22.568  0.00  0.00    +0.000 NA
ATOM     16  C   UNL     1     -28.190  14.915 -22.621  0.00  0.00    +0.000 A 
ATOM     17  C   UNL     1     -27.439  17.036 -22.484  0.00  0.00    +0.000 A 
ATOM     18  C   UNL     1     -29.420  15.579 -22.572  0.00  0.00    +0.000 A 
BRANCH  17  19
ATOM     19  C   UNL     1     -26.425  18.139 -22.358  0.00  0.00    +0.000 C 
ATOM     20  C   UNL     1     -25.113  17.739 -23.040  0.00  0.00    +0.000 C 
ATOM     21  C   UNL     1     -26.188  18.509 -20.890  0.00  0.00    +0.000 C 
ENDBRANCH  17  19
ENDBRANCH  13  16
ENDBRANCH   9  13
ENDBRANCH   6   8
BRANCH   6  22
ATOM     22  C   UNL     1     -23.527  11.354 -25.594  0.00  0.00    +0.000 C 
ATOM     23  C   UNL     1     -22.482  10.544 -26.383  0.00  0.00    +0.000 C 
ATOM     24  C   UNL     1     -23.395  12.851 -25.922  0.00  0.00    +0.000 C 
ENDBRANCH   6  22
ENDBRANCH   4   6
ENDBRANCH   1   3
BRANCH   1  25
ATOM     25  C   UNL     1     -24.011   6.998 -23.071  0.00  0.00    +0.000 C 
BRANCH  25  26
ATOM     26  C   UNL     1     -22.834   6.869 -22.136  0.00  0.00    +0.000 A 
ATOM     27  C   UNL     1     -22.952   6.125 -20.947  0.00  0.00    +0.000 A 
ATOM     28  C   UNL     1     -21.593   7.446 -22.463  0.00  0.00    +0.000 A 
ATOM     29  C   UNL     1     -21.848   5.969 -20.101  0.00  0.00    +0.000 A 
ATOM     30  C   UNL     1     -20.496   7.295 -21.608  0.00  0.00    +0.000 A 
ATOM     31  C   UNL     1     -20.623   6.557 -20.429  0.00  0.00    +0.000 A 
ENDBRANCH  25  26
ENDBRANCH   1  25
BRANCH   1  32
ATOM     32  C   UNL     1     -24.512   8.917 -21.427  0.00  0.00    +0.000 C 
BRANCH  32  33
ATOM     33  C   UNL     1     -25.619   9.772 -20.756  0.00  0.00    +0.000 C 
BRANCH  33  34
ATOM     34  O   UNL     1     -25.171  11.091 -20.574  0.00  0.00    +0.000 OA
ATOM     35  H   UNL     1     -24.838  11.439 -21.416  0.00  0.00    +0.000 HD
ENDBRANCH  33  34
BRANCH  33  36
ATOM     36  C   UNL     1     -26.288   9.210 -19.462  0.00  0.00    +0.000 C 
BRANCH  36  38
ATOM     37  O   UNL     1     -28.171  11.407 -19.488  0.00  0.00    +0.000 OA
ATOM     38  N   UNL     1     -26.434  10.249 -18.431  0.00  0.00    +0.000 N 
ATOM     39  C   UNL     1     -27.279  11.394 -18.596  0.00  0.00    +0.000 C 
ATOM     40  H   UNL     1     -25.929  10.154 -17.592  0.00  0.00    +0.000 HD
BRANCH  39  41
ATOM     41  O   UNL     1     -27.080  12.510 -17.777  0.00  0.00    +0.000 OA
BRANCH  41  42
ATOM     42  C   UNL     1     -28.092  13.051 -16.929  0.00  0.00    +0.000 C 
BRANCH  42  45
ATOM     43  S   UNL     1     -27.753  14.691 -14.657  0.00  0.00    +0.000 S 
ATOM     44  N   UNL     1     -26.591  16.383 -16.107  0.00  0.00    +0.000 NA
ATOM     45  C   UNL     1     -27.629  14.323 -16.291  0.00  0.00    +0.000 A 
ATOM     46  C   UNL     1     -26.958  15.360 -16.925  0.00  0.00    +0.000 A 
ATOM     47  C   UNL     1     -26.962  16.168 -14.825  0.00  0.00    +0.000 A 
ENDBRANCH  42  45
ENDBRANCH  41  42
ENDBRANCH  39  41
ENDBRANCH  36  38
BRANCH  36  48
ATOM     48  C   UNL     1     -27.636   8.486 -19.696  0.00  0.00    +0.000 C 
BRANCH  48  49
ATOM     49  C   UNL     1     -27.445   7.244 -20.530  0.00  0.00    +0.000 A 
ATOM     50  C   UNL     1     -26.619   6.199 -20.075  0.00  0.00    +0.000 A 
ATOM     51  C   UNL     1     -28.024   7.155 -21.807  0.00  0.00    +0.000 A 
ATOM     52  C   UNL     1     -26.388   5.080 -20.881  0.00  0.00    +0.000 A 
ATOM     53  C   UNL     1     -27.788   6.034 -22.611  0.00  0.00    +0.000 A 
ATOM     54  C   UNL     1     -26.977   4.996 -22.146  0.00  0.00    +0.000 A 
ENDBRANCH  48  49
ENDBRANCH  36  48
ENDBRANCH  33  36
ENDBRANCH  32  33
ENDBRANCH   1  32
TORSDOF 19
ENDMDL
MODEL 5
REMARK VINA RESULT:    -6.801      3.049      9.037
REMARK INTER + INTRA:         -18.108
REMARK INTER:                 -13.909
REMARK INTRA:                  -4.199
REMARK UNBOUND:                -3.951
REMARK  Name = 392622
REMARK  24 active torsions:
REMARK  status: ('A' for Active; 'I' for Inactive)
REMARK    1  A    between atoms: O_3  and  C_16
REMARK    2  A    between atoms: O_5  and  C_29
REMARK    3  A    between atoms: O_5  and  C_41
REMARK    4  A    between atoms: N_8  and  C_14
REMARK    5  A    between atoms: N_9  and  C_17
REMARK    6  A    between atoms: N_10  and  C_20
REMARK    7  A    between atoms: N_11  and  C_39
REMARK    8  A    between atoms: N_11  and  C_40
REMARK    9  A    between atoms: C_14  and  C_15
REMARK   10  A    between atoms: C_14  and  C_18
REMARK   11  A    between atoms: C_15  and  C_16
REMARK   12  A    between atoms: C_16  and  C_17
REMARK   13  A    between atoms: C_17  and  C_19
REMARK   14  A    between atoms: C_18  and  C_23
REMARK   15  A    between atoms: C_19  and  C_24
REMARK   16  A    between atoms: C_20  and  C_21
REMARK   17  A    between atoms: C_20  and  C_22
REMARK   18  A    between atoms: C_21  and  C_25
REMARK   19  A    between atoms: C_21  and  C_26
REMARK   20  A    between atoms: C_39  and  C_42
REMARK   21  A    between atoms: C_41  and  C_43
REMARK   22  A    between atoms: C_44  and  C_46
REMARK   23  A    between atoms: C_46  and  C_47
REMARK   24  A    between atoms: C_46  and  C_48
REMARK                            x       y       z     vdW  Elec       q    Type
REMARK                         _______ _______ _______ _____ _____    ______ ____
ROOT
ATOM      1  C   UNL     1     -23.746   5.794 -27.843  0.00  0.00    +0.000 C 
ENDROOT
BRANCH   1   3
ATOM      2  O   UNL     1     -24.010   8.573 -27.239  0.00  0.00    +0.000 OA
ATOM      3  N   UNL     1     -22.679   6.652 -27.310  0.00  0.00    +0.000 N 
ATOM      4  C   UNL     1     -22.905   8.026 -26.963  0.00  0.00    +0.000 C 
ATOM      5  H   UNL     1     -21.780   6.272 -27.187  0.00  0.00    +0.000 HD
BRANCH   4   6
ATOM      6  C   UNL     1     -21.844   8.801 -26.216  0.00  0.00    +0.000 C 
BRANCH   6   8
ATOM      7  O   UNL     1     -20.914   7.378 -23.900  0.00  0.00    +0.000 OA
ATOM      8  N   UNL     1     -20.600   8.024 -26.120  0.00  0.00    +0.000 N 
ATOM      9  N   UNL     1     -18.705   7.243 -24.668  0.00  0.00    +0.000 N 
ATOM     10  C   UNL     1     -20.109   7.536 -24.858  0.00  0.00    +0.000 C 
ATOM     11  C   UNL     1     -17.716   7.624 -25.683  0.00  0.00    +0.000 C 
ATOM     12  H   UNL     1     -20.089   7.832 -26.939  0.00  0.00    +0.000 HD
BRANCH   9  13
ATOM     13  C   UNL     1     -18.244   6.667 -23.395  0.00  0.00    +0.000 C 
BRANCH  13  16
ATOM     14  S   UNL     1     -15.440   3.861 -23.577  0.00  0.00    +0.000 S 
ATOM     15  N   UNL     1     -17.805   4.372 -24.255  0.00  0.00    +0.000 NA
ATOM     16  C   UNL     1     -17.348   5.473 -23.598  0.00  0.00    +0.000 A 
ATOM     17  C   UNL     1     -16.872   3.397 -24.337  0.00  0.00    +0.000 A 
ATOM     18  C   UNL     1     -16.030   5.375 -23.141  0.00  0.00    +0.000 A 
BRANCH  17  19
ATOM     19  C   UNL     1     -17.139   2.057 -24.967  0.00  0.00    +0.000 C 
ATOM     20  C   UNL     1     -16.750   2.077 -26.449  0.00  0.00    +0.000 C 
ATOM     21  C   UNL     1     -18.603   1.645 -24.792  0.00  0.00    +0.000 C 
ENDBRANCH  17  19
ENDBRANCH  13  16
ENDBRANCH   9  13
ENDBRANCH   6   8
BRANCH   6  22
ATOM     22  C   UNL     1     -21.558  10.187 -26.860  0.00  0.00    +0.000 C 
ATOM     23  C   UNL     1     -22.309  11.339 -26.171  0.00  0.00    +0.000 C 
ATOM     24  C   UNL     1     -20.051  10.493 -26.917  0.00  0.00    +0.000 C 
ENDBRANCH   6  22
ENDBRANCH   4   6
ENDBRANCH   1   3
BRANCH   1  25
ATOM     25  C   UNL     1     -23.565   5.618 -29.368  0.00  0.00    +0.000 C 
BRANCH  25  26
ATOM     26  C   UNL     1     -24.849   5.896 -30.112  0.00  0.00    +0.000 A 
ATOM     27  C   UNL     1     -25.908   6.564 -29.472  0.00  0.00    +0.000 A 
ATOM     28  C   UNL     1     -24.983   5.535 -31.466  0.00  0.00    +0.000 A 
ATOM     29  C   UNL     1     -27.082   6.860 -30.175  0.00  0.00    +0.000 A 
ATOM     30  C   UNL     1     -26.162   5.825 -32.160  0.00  0.00    +0.000 A 
ATOM     31  C   UNL     1     -27.211   6.487 -31.516  0.00  0.00    +0.000 A 
ENDBRANCH  25  26
ENDBRANCH   1  25
BRANCH   1  32
ATOM     32  C   UNL     1     -23.710   4.449 -27.076  0.00  0.00    +0.000 C 
BRANCH  32  33
ATOM     33  C   UNL     1     -22.669   4.271 -25.940  0.00  0.00    +0.000 C 
BRANCH  33  34
ATOM     34  O   UNL     1     -22.143   2.968 -25.963  0.00  0.00    +0.000 OA
ATOM     35  H   UNL     1     -21.638   2.838 -26.781  0.00  0.00    +0.000 HD
ENDBRANCH  33  34
BRANCH  33  36
ATOM     36  C   UNL     1     -23.089   4.692 -24.497  0.00  0.00    +0.000 C 
BRANCH  36  38
ATOM     37  O   UNL     1     -24.251   7.296 -24.001  0.00  0.00    +0.000 OA
ATOM     38  N   UNL     1     -24.523   5.009 -24.418  0.00  0.00    +0.000 N 
ATOM     39  C   UNL     1     -25.014   6.291 -24.008  0.00  0.00    +0.000 C 
ATOM     40  H   UNL     1     -25.173   4.310 -24.656  0.00  0.00    +0.000 HD
BRANCH  39  41
ATOM     41  O   UNL     1     -26.343   6.407 -23.585  0.00  0.00    +0.000 OA
BRANCH  41  42
ATOM     42  C   UNL     1     -26.901   7.619 -23.079  0.00  0.00    +0.000 C 
BRANCH  42  45
ATOM     43  S   UNL     1     -25.388   8.463 -20.851  0.00  0.00    +0.000 S 
ATOM     44  N   UNL     1     -27.185   7.560 -19.344  0.00  0.00    +0.000 NA
ATOM     45  C   UNL     1     -26.696   7.722 -21.600  0.00  0.00    +0.000 A 
ATOM     46  C   UNL     1     -27.581   7.296 -20.618  0.00  0.00    +0.000 A 
ATOM     47  C   UNL     1     -25.993   8.195 -19.302  0.00  0.00    +0.000 A 
ENDBRANCH  42  45
ENDBRANCH  41  42
ENDBRANCH  39  41
ENDBRANCH  36  38
BRANCH  36  48
ATOM     48  C   UNL     1     -22.696   3.683 -23.391  0.00  0.00    +0.000 C 
BRANCH  48  49
ATOM     49  C   UNL     1     -21.964   4.371 -22.265  0.00  0.00    +0.000 A 
ATOM     50  C   UNL     1     -20.637   4.017 -21.956  0.00  0.00    +0.000 A 
ATOM     51  C   UNL     1     -22.628   5.312 -21.461  0.00  0.00    +0.000 A 
ATOM     52  C   UNL     1     -19.985   4.606 -20.868  0.00  0.00    +0.000 A 
ATOM     53  C   UNL     1     -21.972   5.897 -20.372  0.00  0.00    +0.000 A 
ATOM     54  C   UNL     1     -20.651   5.548 -20.081  0.00  0.00    +0.000 A 
ENDBRANCH  48  49
ENDBRANCH  36  48
ENDBRANCH  33  36
ENDBRANCH  32  33
ENDBRANCH   1  32
TORSDOF 19
ENDMDL
MODEL 6
REMARK VINA RESULT:    -6.771      2.282      4.169
REMARK INTER + INTRA:         -18.044
REMARK INTER:                 -13.976
REMARK INTRA:                  -4.068
REMARK UNBOUND:                -3.951
REMARK  Name = 392622
REMARK  24 active torsions:
REMARK  status: ('A' for Active; 'I' for Inactive)
REMARK    1  A    between atoms: O_3  and  C_16
REMARK    2  A    between atoms: O_5  and  C_29
REMARK    3  A    between atoms: O_5  and  C_41
REMARK    4  A    between atoms: N_8  and  C_14
REMARK    5  A    between atoms: N_9  and  C_17
REMARK    6  A    between atoms: N_10  and  C_20
REMARK    7  A    between atoms: N_11  and  C_39
REMARK    8  A    between atoms: N_11  and  C_40
REMARK    9  A    between atoms: C_14  and  C_15
REMARK   10  A    between atoms: C_14  and  C_18
REMARK   11  A    between atoms: C_15  and  C_16
REMARK   12  A    between atoms: C_16  and  C_17
REMARK   13  A    between atoms: C_17  and  C_19
REMARK   14  A    between atoms: C_18  and  C_23
REMARK   15  A    between atoms: C_19  and  C_24
REMARK   16  A    between atoms: C_20  and  C_21
REMARK   17  A    between atoms: C_20  and  C_22
REMARK   18  A    between atoms: C_21  and  C_25
REMARK   19  A    between atoms: C_21  and  C_26
REMARK   20  A    between atoms: C_39  and  C_42
REMARK   21  A    between atoms: C_41  and  C_43
REMARK   22  A    between atoms: C_44  and  C_46
REMARK   23  A    between atoms: C_46  and  C_47
REMARK   24  A    between atoms: C_46  and  C_48
REMARK                            x       y       z     vdW  Elec       q    Type
REMARK                         _______ _______ _______ _____ _____    ______ ____
ROOT
ATOM      1  C   UNL     1     -19.672   5.644 -24.601  0.00  0.00    +0.000 C 
ENDROOT
BRANCH   1   3
ATOM      2  O   UNL     1     -20.393   2.902 -24.261  0.00  0.00    +0.000 OA
ATOM      3  N   UNL     1     -20.617   4.904 -25.447  0.00  0.00    +0.000 N 
ATOM      4  C   UNL     1     -20.986   3.544 -25.173  0.00  0.00    +0.000 C 
ATOM      5  H   UNL     1     -21.011   5.355 -26.228  0.00  0.00    +0.000 HD
BRANCH   4   6
ATOM      6  C   UNL     1     -22.122   2.901 -25.935  0.00  0.00    +0.000 C 
BRANCH   6   8
ATOM      7  O   UNL     1     -23.625   5.172 -25.022  0.00  0.00    +0.000 OA
ATOM      8  N   UNL     1     -23.343   2.859 -25.116  0.00  0.00    +0.000 N 
ATOM      9  N   UNL     1     -24.738   3.969 -23.349  0.00  0.00    +0.000 N 
ATOM     10  C   UNL     1     -23.895   4.046 -24.521  0.00  0.00    +0.000 C 
ATOM     11  C   UNL     1     -24.888   2.707 -22.616  0.00  0.00    +0.000 C 
ATOM     12  H   UNL     1     -23.793   1.996 -24.971  0.00  0.00    +0.000 HD
BRANCH   9  13
ATOM     13  C   UNL     1     -25.357   5.192 -22.811  0.00  0.00    +0.000 C 
BRANCH  13  16
ATOM     14  S   UNL     1     -23.831   6.999 -19.622  0.00  0.00    +0.000 S 
ATOM     15  N   UNL     1     -23.220   5.556 -21.585  0.00  0.00    +0.000 NA
ATOM     16  C   UNL     1     -24.557   5.789 -21.682  0.00  0.00    +0.000 A 
ATOM     17  C   UNL     1     -22.668   6.160 -20.510  0.00  0.00    +0.000 A 
ATOM     18  C   UNL     1     -25.086   6.588 -20.663  0.00  0.00    +0.000 A 
BRANCH  17  19
ATOM     19  C   UNL     1     -21.216   6.018 -20.144  0.00  0.00    +0.000 C 
ATOM     20  C   UNL     1     -20.376   7.075 -20.870  0.00  0.00    +0.000 C 
ATOM     21  C   UNL     1     -20.703   4.608 -20.451  0.00  0.00    +0.000 C 
ENDBRANCH  17  19
ENDBRANCH  13  16
ENDBRANCH   9  13
ENDBRANCH   6   8
BRANCH   6  22
ATOM     22  C   UNL     1     -22.410   3.615 -27.285  0.00  0.00    +0.000 C 
ATOM     23  C   UNL     1     -21.171   3.710 -28.193  0.00  0.00    +0.000 C 
ATOM     24  C   UNL     1     -23.576   2.960 -28.044  0.00  0.00    +0.000 C 
ENDBRANCH   6  22
ENDBRANCH   4   6
ENDBRANCH   1   3
BRANCH   1  25
ATOM     25  C   UNL     1     -18.256   5.581 -25.217  0.00  0.00    +0.000 C 
BRANCH  25  26
ATOM     26  C   UNL     1     -17.231   5.133 -24.204  0.00  0.00    +0.000 A 
ATOM     27  C   UNL     1     -16.525   6.083 -23.444  0.00  0.00    +0.000 A 
ATOM     28  C   UNL     1     -17.005   3.764 -23.971  0.00  0.00    +0.000 A 
ATOM     29  C   UNL     1     -15.605   5.668 -22.473  0.00  0.00    +0.000 A 
ATOM     30  C   UNL     1     -16.078   3.355 -23.007  0.00  0.00    +0.000 A 
ATOM     31  C   UNL     1     -15.379   4.305 -22.258  0.00  0.00    +0.000 A 
ENDBRANCH  25  26
ENDBRANCH   1  25
BRANCH   1  32
ATOM     32  C   UNL     1     -20.195   7.094 -24.447  0.00  0.00    +0.000 C 
BRANCH  32  33
ATOM     33  C   UNL     1     -20.541   7.895 -25.729  0.00  0.00    +0.000 C 
BRANCH  33  34
ATOM     34  O   UNL     1     -19.619   8.940 -25.912  0.00  0.00    +0.000 OA
ATOM     35  H   UNL     1     -18.870   8.819 -25.308  0.00  0.00    +0.000 HD
ENDBRANCH  33  34
BRANCH  33  36
ATOM     36  C   UNL     1     -22.011   8.393 -25.901  0.00  0.00    +0.000 C 
BRANCH  36  38
ATOM     37  O   UNL     1     -24.282   8.393 -24.108  0.00  0.00    +0.000 OA
ATOM     38  N   UNL     1     -22.350   9.435 -24.920  0.00  0.00    +0.000 N 
ATOM     39  C   UNL     1     -23.580   9.438 -24.185  0.00  0.00    +0.000 C 
ATOM     40  H   UNL     1     -21.706  10.161 -24.762  0.00  0.00    +0.000 HD
BRANCH  39  41
ATOM     41  O   UNL     1     -24.008  10.624 -23.579  0.00  0.00    +0.000 OA
BRANCH  41  42
ATOM     42  C   UNL     1     -25.346  11.111 -23.665  0.00  0.00    +0.000 C 
BRANCH  42  45
ATOM     43  S   UNL     1     -25.381  10.342 -20.949  0.00  0.00    +0.000 S 
ATOM     44  N   UNL     1     -27.604  11.486 -20.700  0.00  0.00    +0.000 NA
ATOM     45  C   UNL     1     -26.021  11.052 -22.331  0.00  0.00    +0.000 A 
ATOM     46  C   UNL     1     -27.237  11.635 -22.001  0.00  0.00    +0.000 A 
ATOM     47  C   UNL     1     -26.689  10.791 -19.989  0.00  0.00    +0.000 A 
ENDBRANCH  42  45
ENDBRANCH  41  42
ENDBRANCH  39  41
ENDBRANCH  36  38
BRANCH  36  48
ATOM     48  C   UNL     1     -22.369   8.860 -27.333  0.00  0.00    +0.000 C 
BRANCH  48  49
ATOM     49  C   UNL     1     -23.376   7.933 -27.968  0.00  0.00    +0.000 A 
ATOM     50  C   UNL     1     -22.998   7.089 -29.029  0.00  0.00    +0.000 A 
ATOM     51  C   UNL     1     -24.721   7.966 -27.563  0.00  0.00    +0.000 A 
ATOM     52  C   UNL     1     -23.949   6.283 -29.663  0.00  0.00    +0.000 A 
ATOM     53  C   UNL     1     -25.669   7.159 -28.202  0.00  0.00    +0.000 A 
ATOM     54  C   UNL     1     -25.282   6.315 -29.245  0.00  0.00    +0.000 A 
ENDBRANCH  48  49
ENDBRANCH  36  48
ENDBRANCH  33  36
ENDBRANCH  32  33
ENDBRANCH   1  32
TORSDOF 19
ENDMDL
MODEL 7
REMARK VINA RESULT:    -6.672      2.804      8.817
REMARK INTER + INTRA:         -17.838
REMARK INTER:                 -13.954
REMARK INTRA:                  -3.883
REMARK UNBOUND:                -3.951
REMARK  Name = 392622
REMARK  24 active torsions:
REMARK  status: ('A' for Active; 'I' for Inactive)
REMARK    1  A    between atoms: O_3  and  C_16
REMARK    2  A    between atoms: O_5  and  C_29
REMARK    3  A    between atoms: O_5  and  C_41
REMARK    4  A    between atoms: N_8  and  C_14
REMARK    5  A    between atoms: N_9  and  C_17
REMARK    6  A    between atoms: N_10  and  C_20
REMARK    7  A    between atoms: N_11  and  C_39
REMARK    8  A    between atoms: N_11  and  C_40
REMARK    9  A    between atoms: C_14  and  C_15
REMARK   10  A    between atoms: C_14  and  C_18
REMARK   11  A    between atoms: C_15  and  C_16
REMARK   12  A    between atoms: C_16  and  C_17
REMARK   13  A    between atoms: C_17  and  C_19
REMARK   14  A    between atoms: C_18  and  C_23
REMARK   15  A    between atoms: C_19  and  C_24
REMARK   16  A    between atoms: C_20  and  C_21
REMARK   17  A    between atoms: C_20  and  C_22
REMARK   18  A    between atoms: C_21  and  C_25
REMARK   19  A    between atoms: C_21  and  C_26
REMARK   20  A    between atoms: C_39  and  C_42
REMARK   21  A    between atoms: C_41  and  C_43
REMARK   22  A    between atoms: C_44  and  C_46
REMARK   23  A    between atoms: C_46  and  C_47
REMARK   24  A    between atoms: C_46  and  C_48
REMARK                            x       y       z     vdW  Elec       q    Type
REMARK                         _______ _______ _______ _____ _____    ______ ____
ROOT
ATOM      1  C   UNL     1     -24.022   5.809 -26.965  0.00  0.00    +0.000 C 
ENDROOT
BRANCH   1   3
ATOM      2  O   UNL     1     -23.712   8.588 -27.547  0.00  0.00    +0.000 OA
ATOM      3  N   UNL     1     -22.889   6.643 -26.545  0.00  0.00    +0.000 N 
ATOM      4  C   UNL     1     -22.834   8.052 -26.813  0.00  0.00    +0.000 C 
ATOM      5  H   UNL     1     -22.141   6.222 -26.063  0.00  0.00    +0.000 HD
BRANCH   4   6
ATOM      6  C   UNL     1     -21.762   8.903 -26.172  0.00  0.00    +0.000 C 
BRANCH   6   8
ATOM      7  O   UNL     1     -21.040   7.311 -23.892  0.00  0.00    +0.000 OA
ATOM      8  N   UNL     1     -20.516   8.139 -26.009  0.00  0.00    +0.000 N 
ATOM      9  N   UNL     1     -18.762   7.272 -24.436  0.00  0.00    +0.000 N 
ATOM     10  C   UNL     1     -20.145   7.558 -24.746  0.00  0.00    +0.000 C 
ATOM     11  C   UNL     1     -17.684   7.748 -25.310  0.00  0.00    +0.000 C 
ATOM     12  H   UNL     1     -19.921   8.022 -26.784  0.00  0.00    +0.000 HD
BRANCH   9  13
ATOM     13  C   UNL     1     -18.420   6.601 -23.171  0.00  0.00    +0.000 C 
BRANCH  13  16
ATOM     14  S   UNL     1     -18.314   2.672 -23.733  0.00  0.00    +0.000 S 
ATOM     15  N   UNL     1     -16.847   4.682 -23.386  0.00  0.00    +0.000 NA
ATOM     16  C   UNL     1     -18.131   5.135 -23.361  0.00  0.00    +0.000 A 
ATOM     17  C   UNL     1     -16.776   3.346 -23.573  0.00  0.00    +0.000 A 
ATOM     18  C   UNL     1     -19.103   4.144 -23.537  0.00  0.00    +0.000 A 
BRANCH  17  19
ATOM     19  C   UNL     1     -15.474   2.602 -23.693  0.00  0.00    +0.000 C 
ATOM     20  C   UNL     1     -14.301   3.517 -23.325  0.00  0.00    +0.000 C 
ATOM     21  C   UNL     1     -15.295   2.023 -25.100  0.00  0.00    +0.000 C 
ENDBRANCH  17  19
ENDBRANCH  13  16
ENDBRANCH   9  13
ENDBRANCH   6   8
BRANCH   6  22
ATOM     22  C   UNL     1     -21.486  10.209 -26.968  0.00  0.00    +0.000 C 
ATOM     23  C   UNL     1     -22.303  11.410 -26.459  0.00  0.00    +0.000 C 
ATOM     24  C   UNL     1     -19.988  10.559 -26.996  0.00  0.00    +0.000 C 
ENDBRANCH   6  22
ENDBRANCH   4   6
ENDBRANCH   1   3
BRANCH   1  25
ATOM     25  C   UNL     1     -23.746   5.217 -28.366  0.00  0.00    +0.000 C 
BRANCH  25  26
ATOM     26  C   UNL     1     -24.809   5.622 -29.358  0.00  0.00    +0.000 A 
ATOM     27  C   UNL     1     -25.940   6.341 -28.929  0.00  0.00    +0.000 A 
ATOM     28  C   UNL     1     -24.660   5.331 -30.726  0.00  0.00    +0.000 A 
ATOM     29  C   UNL     1     -26.905   6.755 -29.855  0.00  0.00    +0.000 A 
ATOM     30  C   UNL     1     -25.633   5.738 -31.645  0.00  0.00    +0.000 A 
ATOM     31  C   UNL     1     -26.753   6.450 -31.211  0.00  0.00    +0.000 A 
ENDBRANCH  25  26
ENDBRANCH   1  25
BRANCH   1  32
ATOM     32  C   UNL     1     -24.246   4.720 -25.887  0.00  0.00    +0.000 C 
BRANCH  32  33
ATOM     33  C   UNL     1     -23.223   4.605 -24.728  0.00  0.00    +0.000 C 
BRANCH  33  34
ATOM     34  O   UNL     1     -22.318   3.559 -24.981  0.00  0.00    +0.000 OA
ATOM     35  H   UNL     1     -21.417   3.855 -24.778  0.00  0.00    +0.000 HD
ENDBRANCH  33  34
BRANCH  33  36
ATOM     36  C   UNL     1     -23.778   4.539 -23.270  0.00  0.00    +0.000 C 
BRANCH  36  38
ATOM     37  O   UNL     1     -21.996   5.003 -21.038  0.00  0.00    +0.000 OA
ATOM     38  N   UNL     1     -23.584   5.809 -22.557  0.00  0.00    +0.000 N 
ATOM     39  C   UNL     1     -22.805   5.917 -21.359  0.00  0.00    +0.000 C 
ATOM     40  H   UNL     1     -24.008   6.622 -22.916  0.00  0.00    +0.000 HD
BRANCH  39  41
ATOM     41  O   UNL     1     -22.976   7.033 -20.533  0.00  0.00    +0.000 OA
BRANCH  41  42
ATOM     42  C   UNL     1     -24.149   7.260 -19.753  0.00  0.00    +0.000 C 
BRANCH  42  45
ATOM     43  S   UNL     1     -25.994   9.338 -19.261  0.00  0.00    +0.000 S 
ATOM     44  N   UNL     1     -25.210  10.472 -21.362  0.00  0.00    +0.000 NA
ATOM     45  C   UNL     1     -24.811   8.543 -20.148  0.00  0.00    +0.000 A 
ATOM     46  C   UNL     1     -24.502   9.316 -21.260  0.00  0.00    +0.000 A 
ATOM     47  C   UNL     1     -26.080  10.629 -20.339  0.00  0.00    +0.000 A 
ENDBRANCH  42  45
ENDBRANCH  41  42
ENDBRANCH  39  41
ENDBRANCH  36  38
BRANCH  36  48
ATOM     48  C   UNL     1     -25.252   4.077 -23.163  0.00  0.00    +0.000 C 
BRANCH  48  49
ATOM     49  C   UNL     1     -26.125   5.176 -22.610  0.00  0.00    +0.000 A 
ATOM     50  C   UNL     1     -26.650   5.082 -21.307  0.00  0.00    +0.000 A 
ATOM     51  C   UNL     1     -26.491   6.264 -23.420  0.00  0.00    +0.000 A 
ATOM     52  C   UNL     1     -27.515   6.068 -20.822  0.00  0.00    +0.000 A 
ATOM     53  C   UNL     1     -27.359   7.246 -22.931  0.00  0.00    +0.000 A 
ATOM     54  C   UNL     1     -27.865   7.151 -21.633  0.00  0.00    +0.000 A 
ENDBRANCH  48  49
ENDBRANCH  36  48
ENDBRANCH  33  36
ENDBRANCH  32  33
ENDBRANCH   1  32
TORSDOF 19
ENDMDL
MODEL 8
REMARK VINA RESULT:    -6.622      3.911      8.636
REMARK INTER + INTRA:         -17.734
REMARK INTER:                 -12.287
REMARK INTRA:                  -5.448
REMARK UNBOUND:                -3.951
REMARK  Name = 392622
REMARK  24 active torsions:
REMARK  status: ('A' for Active; 'I' for Inactive)
REMARK    1  A    between atoms: O_3  and  C_16
REMARK    2  A    between atoms: O_5  and  C_29
REMARK    3  A    between atoms: O_5  and  C_41
REMARK    4  A    between atoms: N_8  and  C_14
REMARK    5  A    between atoms: N_9  and  C_17
REMARK    6  A    between atoms: N_10  and  C_20
REMARK    7  A    between atoms: N_11  and  C_39
REMARK    8  A    between atoms: N_11  and  C_40
REMARK    9  A    between atoms: C_14  and  C_15
REMARK   10  A    between atoms: C_14  and  C_18
REMARK   11  A    between atoms: C_15  and  C_16
REMARK   12  A    between atoms: C_16  and  C_17
REMARK   13  A    between atoms: C_17  and  C_19
REMARK   14  A    between atoms: C_18  and  C_23
REMARK   15  A    between atoms: C_19  and  C_24
REMARK   16  A    between atoms: C_20  and  C_21
REMARK   17  A    between atoms: C_20  and  C_22
REMARK   18  A    between atoms: C_21  and  C_25
REMARK   19  A    between atoms: C_21  and  C_26
REMARK   20  A    between atoms: C_39  and  C_42
REMARK   21  A    between atoms: C_41  and  C_43
REMARK   22  A    between atoms: C_44  and  C_46
REMARK   23  A    between atoms: C_46  and  C_47
REMARK   24  A    between atoms: C_46  and  C_48
REMARK                            x       y       z     vdW  Elec       q    Type
REMARK                         _______ _______ _______ _____ _____    ______ ____
ROOT
ATOM      1  C   UNL     1     -23.405   4.298 -28.540  0.00  0.00    +0.000 C 
ENDROOT
BRANCH   1   3
ATOM      2  O   UNL     1     -25.631   2.520 -28.747  0.00  0.00    +0.000 OA
ATOM      3  N   UNL     1     -24.497   4.187 -27.564  0.00  0.00    +0.000 N 
ATOM      4  C   UNL     1     -25.548   3.219 -27.699  0.00  0.00    +0.000 C 
ATOM      5  H   UNL     1     -24.508   4.797 -26.792  0.00  0.00    +0.000 HD
BRANCH   4   6
ATOM      6  C   UNL     1     -26.519   2.995 -26.562  0.00  0.00    +0.000 C 
BRANCH   6   8
ATOM      7  O   UNL     1     -25.681   2.882 -23.816  0.00  0.00    +0.000 OA
ATOM      8  N   UNL     1     -26.489   4.123 -25.619  0.00  0.00    +0.000 N 
ATOM      9  N   UNL     1     -26.733   4.895 -23.242  0.00  0.00    +0.000 N 
ATOM     10  C   UNL     1     -26.270   3.926 -24.211  0.00  0.00    +0.000 C 
ATOM     11  C   UNL     1     -27.610   5.999 -23.647  0.00  0.00    +0.000 C 
ATOM     12  H   UNL     1     -26.621   5.037 -25.960  0.00  0.00    +0.000 HD
BRANCH   9  13
ATOM     13  C   UNL     1     -26.422   4.708 -21.815  0.00  0.00    +0.000 C 
BRANCH  13  16
ATOM     14  S   UNL     1     -23.836   7.297 -20.276  0.00  0.00    +0.000 S 
ATOM     15  N   UNL     1     -23.999   5.277 -21.760  0.00  0.00    +0.000 NA
ATOM     16  C   UNL     1     -25.268   5.565 -21.364  0.00  0.00    +0.000 A 
ATOM     17  C   UNL     1     -23.092   6.143 -21.255  0.00  0.00    +0.000 A 
ATOM     18  C   UNL     1     -25.380   6.677 -20.522  0.00  0.00    +0.000 A 
BRANCH  17  19
ATOM     19  C   UNL     1     -21.613   6.016 -21.496  0.00  0.00    +0.000 C 
ATOM     20  C   UNL     1     -20.890   5.642 -20.198  0.00  0.00    +0.000 C 
ATOM     21  C   UNL     1     -21.036   7.305 -22.090  0.00  0.00    +0.000 C 
ENDBRANCH  17  19
ENDBRANCH  13  16
ENDBRANCH   9  13
ENDBRANCH   6   8
BRANCH   6  22
ATOM     22  C   UNL     1     -27.972   2.758 -27.062  0.00  0.00    +0.000 C 
ATOM     23  C   UNL     1     -28.892   2.163 -25.981  0.00  0.00    +0.000 C 
ATOM     24  C   UNL     1     -28.595   4.039 -27.643  0.00  0.00    +0.000 C 
ENDBRANCH   6  22
ENDBRANCH   4   6
ENDBRANCH   1   3
BRANCH   1  25
ATOM     25  C   UNL     1     -23.361   5.731 -29.117  0.00  0.00    +0.000 C 
BRANCH  25  26
ATOM     26  C   UNL     1     -24.683   6.120 -29.734  0.00  0.00    +0.000 A 
ATOM     27  C   UNL     1     -24.997   5.721 -31.046  0.00  0.00    +0.000 A 
ATOM     28  C   UNL     1     -25.636   6.841 -28.990  0.00  0.00    +0.000 A 
ATOM     29  C   UNL     1     -26.240   6.044 -31.603  0.00  0.00    +0.000 A 
ATOM     30  C   UNL     1     -26.872   7.169 -29.556  0.00  0.00    +0.000 A 
ATOM     31  C   UNL     1     -27.175   6.771 -30.860  0.00  0.00    +0.000 A 
ENDBRANCH  25  26
ENDBRANCH   1  25
BRANCH   1  32
ATOM     32  C   UNL     1     -22.086   3.894 -27.837  0.00  0.00    +0.000 C 
BRANCH  32  33
ATOM     33  C   UNL     1     -21.049   5.002 -27.517  0.00  0.00    +0.000 C 
BRANCH  33  34
ATOM     34  O   UNL     1     -19.780   4.631 -27.996  0.00  0.00    +0.000 OA
ATOM     35  H   UNL     1     -19.871   4.224 -28.871  0.00  0.00    +0.000 HD
ENDBRANCH  33  34
BRANCH  33  36
ATOM     36  C   UNL     1     -20.975   5.528 -26.049  0.00  0.00    +0.000 C 
BRANCH  36  38
ATOM     37  O   UNL     1     -21.248   3.456 -24.048  0.00  0.00    +0.000 OA
ATOM     38  N   UNL     1     -19.884   4.890 -25.297  0.00  0.00    +0.000 N 
ATOM     39  C   UNL     1     -20.116   3.988 -24.208  0.00  0.00    +0.000 C 
ATOM     40  H   UNL     1     -18.955   5.091 -25.552  0.00  0.00    +0.000 HD
BRANCH  39  41
ATOM     41  O   UNL     1     -19.078   3.729 -23.306  0.00  0.00    +0.000 OA
BRANCH  41  42
ATOM     42  C   UNL     1     -18.242   4.748 -22.759  0.00  0.00    +0.000 C 
BRANCH  42  45
ATOM     43  S   UNL     1     -15.499   5.309 -22.401  0.00  0.00    +0.000 S 
ATOM     44  N   UNL     1     -14.952   3.342 -23.866  0.00  0.00    +0.000 NA
ATOM     45  C   UNL     1     -16.801   4.464 -23.043  0.00  0.00    +0.000 A 
ATOM     46  C   UNL     1     -16.308   3.418 -23.812  0.00  0.00    +0.000 A 
ATOM     47  C   UNL     1     -14.358   4.318 -23.144  0.00  0.00    +0.000 A 
ENDBRANCH  42  45
ENDBRANCH  41  42
ENDBRANCH  39  41
ENDBRANCH  36  38
BRANCH  36  48
ATOM     48  C   UNL     1     -20.892   7.068 -25.921  0.00  0.00    +0.000 C 
BRANCH  48  49
ATOM     49  C   UNL     1     -22.268   7.687 -25.933  0.00  0.00    +0.000 A 
ATOM     50  C   UNL     1     -23.319   7.105 -25.200  0.00  0.00    +0.000 A 
ATOM     51  C   UNL     1     -22.533   8.803 -26.745  0.00  0.00    +0.000 A 
ATOM     52  C   UNL     1     -24.609   7.640 -25.270  0.00  0.00    +0.000 A 
ATOM     53  C   UNL     1     -23.826   9.333 -26.813  0.00  0.00    +0.000 A 
ATOM     54  C   UNL     1     -24.860   8.756 -26.072  0.00  0.00    +0.000 A 
ENDBRANCH  48  49
ENDBRANCH  36  48
ENDBRANCH  33  36
ENDBRANCH  32  33
ENDBRANCH   1  32
TORSDOF 19
ENDMDL
MODEL 9
REMARK VINA RESULT:    -6.590      3.436      8.069
REMARK INTER + INTRA:         -17.667
REMARK INTER:                 -13.706
REMARK INTRA:                  -3.961
REMARK UNBOUND:                -3.951
REMARK  Name = 392622
REMARK  24 active torsions:
REMARK  status: ('A' for Active; 'I' for Inactive)
REMARK    1  A    between atoms: O_3  and  C_16
REMARK    2  A    between atoms: O_5  and  C_29
REMARK    3  A    between atoms: O_5  and  C_41
REMARK    4  A    between atoms: N_8  and  C_14
REMARK    5  A    between atoms: N_9  and  C_17
REMARK    6  A    between atoms: N_10  and  C_20
REMARK    7  A    between atoms: N_11  and  C_39
REMARK    8  A    between atoms: N_11  and  C_40
REMARK    9  A    between atoms: C_14  and  C_15
REMARK   10  A    between atoms: C_14  and  C_18
REMARK   11  A    between atoms: C_15  and  C_16
REMARK   12  A    between atoms: C_16  and  C_17
REMARK   13  A    between atoms: C_17  and  C_19
REMARK   14  A    between atoms: C_18  and  C_23
REMARK   15  A    between atoms: C_19  and  C_24
REMARK   16  A    between atoms: C_20  and  C_21
REMARK   17  A    between atoms: C_20  and  C_22
REMARK   18  A    between atoms: C_21  and  C_25
REMARK   19  A    between atoms: C_21  and  C_26
REMARK   20  A    between atoms: C_39  and  C_42
REMARK   21  A    between atoms: C_41  and  C_43
REMARK   22  A    between atoms: C_44  and  C_46
REMARK   23  A    between atoms: C_46  and  C_47
REMARK   24  A    between atoms: C_46  and  C_48
REMARK                            x       y       z     vdW  Elec       q    Type
REMARK                         _______ _______ _______ _____ _____    ______ ____
ROOT
ATOM      1  C   UNL     1     -19.704   6.406 -24.774  0.00  0.00    +0.000 C 
ENDROOT
BRANCH   1   3
ATOM      2  O   UNL     1     -22.110   5.593 -26.079  0.00  0.00    +0.000 OA
ATOM      3  N   UNL     1     -20.490   7.234 -25.697  0.00  0.00    +0.000 N 
ATOM      4  C   UNL     1     -21.730   6.783 -26.262  0.00  0.00    +0.000 C 
ATOM      5  H   UNL     1     -20.155   8.128 -25.937  0.00  0.00    +0.000 HD
BRANCH   4   6
ATOM      6  C   UNL     1     -22.608   7.749 -27.026  0.00  0.00    +0.000 C 
BRANCH   6   8
ATOM      7  O   UNL     1     -23.049   6.568 -29.607  0.00  0.00    +0.000 OA
ATOM      8  N   UNL     1     -23.842   7.088 -27.476  0.00  0.00    +0.000 N 
ATOM      9  N   UNL     1     -25.381   6.570 -29.391  0.00  0.00    +0.000 N 
ATOM     10  C   UNL     1     -24.048   6.729 -28.854  0.00  0.00    +0.000 C 
ATOM     11  C   UNL     1     -26.557   6.965 -28.607  0.00  0.00    +0.000 C 
ATOM     12  H   UNL     1     -24.546   6.886 -26.818  0.00  0.00    +0.000 HD
BRANCH   9  13
ATOM     13  C   UNL     1     -25.561   6.122 -30.781  0.00  0.00    +0.000 C 
BRANCH  13  16
ATOM     14  S   UNL     1     -28.387   3.333 -30.822  0.00  0.00    +0.000 S 
ATOM     15  N   UNL     1     -27.851   5.647 -31.639  0.00  0.00    +0.000 NA
ATOM     16  C   UNL     1     -26.760   5.224 -30.942  0.00  0.00    +0.000 A 
ATOM     17  C   UNL     1     -28.832   4.719 -31.674  0.00  0.00    +0.000 A 
ATOM     18  C   UNL     1     -26.873   3.937 -30.406  0.00  0.00    +0.000 A 
BRANCH  17  19
ATOM     19  C   UNL     1     -30.162   4.956 -32.334  0.00  0.00    +0.000 C 
ATOM     20  C   UNL     1     -30.248   4.186 -33.656  0.00  0.00    +0.000 C 
ATOM     21  C   UNL     1     -30.413   6.451 -32.555  0.00  0.00    +0.000 C 
ENDBRANCH  17  19
ENDBRANCH  13  16
ENDBRANCH   9  13
ENDBRANCH   6   8
BRANCH   6  22
ATOM     22  C   UNL     1     -22.955   9.017 -26.197  0.00  0.00    +0.000 C 
ATOM     23  C   UNL     1     -22.111  10.243 -26.589  0.00  0.00    +0.000 C 
ATOM     24  C   UNL     1     -24.453   9.358 -26.270  0.00  0.00    +0.000 C 
ENDBRANCH   6  22
ENDBRANCH   4   6
ENDBRANCH   1   3
BRANCH   1  25
ATOM     25  C   UNL     1     -18.203   6.754 -24.906  0.00  0.00    +0.000 C 
BRANCH  25  26
ATOM     26  C   UNL     1     -17.344   5.815 -24.095  0.00  0.00    +0.000 A 
ATOM     27  C   UNL     1     -16.385   6.326 -23.201  0.00  0.00    +0.000 A 
ATOM     28  C   UNL     1     -17.525   4.422 -24.184  0.00  0.00    +0.000 A 
ATOM     29  C   UNL     1     -15.618   5.456 -22.417  0.00  0.00    +0.000 A 
ATOM     30  C   UNL     1     -16.748   3.558 -23.405  0.00  0.00    +0.000 A 
ATOM     31  C   UNL     1     -15.797   4.073 -22.522  0.00  0.00    +0.000 A 
ENDBRANCH  25  26
ENDBRANCH   1  25
BRANCH   1  32
ATOM     32  C   UNL     1     -20.247   6.632 -23.342  0.00  0.00    +0.000 C 
BRANCH  32  33
ATOM     33  C   UNL     1     -21.075   5.501 -22.677  0.00  0.00    +0.000 C 
BRANCH  33  34
ATOM     34  O   UNL     1     -21.157   4.391 -23.535  0.00  0.00    +0.000 OA
ATOM     35  H   UNL     1     -20.920   3.587 -23.047  0.00  0.00    +0.000 HD
ENDBRANCH  33  34
BRANCH  33  36
ATOM     36  C   UNL     1     -22.472   5.872 -22.086  0.00  0.00    +0.000 C 
BRANCH  36  38
ATOM     37  O   UNL     1     -24.236   4.364 -23.815  0.00  0.00    +0.000 OA
ATOM     38  N   UNL     1     -23.242   4.675 -21.719  0.00  0.00    +0.000 N 
ATOM     39  C   UNL     1     -24.217   4.083 -22.585  0.00  0.00    +0.000 C 
ATOM     40  H   UNL     1     -23.082   4.263 -20.840  0.00  0.00    +0.000 HD
BRANCH  39  41
ATOM     41  O   UNL     1     -25.169   3.212 -22.043  0.00  0.00    +0.000 OA
BRANCH  41  42
ATOM     42  C   UNL     1     -26.571   3.336 -22.280  0.00  0.00    +0.000 C 
BRANCH  42  45
ATOM     43  S   UNL     1     -27.891   5.746 -22.927  0.00  0.00    +0.000 S 
ATOM     44  N   UNL     1     -27.527   6.527 -20.566  0.00  0.00    +0.000 NA
ATOM     45  C   UNL     1     -27.053   4.704 -21.910  0.00  0.00    +0.000 A 
ATOM     46  C   UNL     1     -26.956   5.297 -20.658  0.00  0.00    +0.000 A 
ATOM     47  C   UNL     1     -28.082   6.920 -21.735  0.00  0.00    +0.000 A 
ENDBRANCH  42  45
ENDBRANCH  41  42
ENDBRANCH  39  41
ENDBRANCH  36  38
BRANCH  36  48
ATOM     48  C   UNL     1     -22.426   6.871 -20.905  0.00  0.00    +0.000 C 
BRANCH  48  49
ATOM     49  C   UNL     1     -23.272   8.087 -21.191  0.00  0.00    +0.000 A 
ATOM     50  C   UNL     1     -24.431   8.344 -20.436  0.00  0.00    +0.000 A 
ATOM     51  C   UNL     1     -22.955   8.929 -22.270  0.00  0.00    +0.000 A 
ATOM     52  C   UNL     1     -25.251   9.433 -20.749  0.00  0.00    +0.000 A 
ATOM     53  C   UNL     1     -23.780  10.016 -22.582  0.00  0.00    +0.000 A 
ATOM     54  C   UNL     1     -24.922  10.270 -21.818  0.00  0.00    +0.000 A 
ENDBRANCH  48  49
ENDBRANCH  36  48
ENDBRANCH  33  36
ENDBRANCH  32  33
ENDBRANCH   1  32
TORSDOF 19
ENDMDL
