MODEL 1
REMARK VINA RESULT:    -5.587      0.000      0.000
REMARK INTER + INTRA:         -10.207
REMARK INTER:                  -8.363
REMARK INTRA:                  -1.844
REMARK UNBOUND:                -1.844
REMARK  Name = 131411
REMARK  13 active torsions:
REMARK  status: ('A' for Active; 'I' for Inactive)
REMARK    1  A    between atoms: S_2  and  C_16
REMARK    2  A    between atoms: S_2  and  C_22
REMARK    3  A    between atoms: O_3  and  C_15
REMARK    4  A    between atoms: O_4  and  C_19
REMARK    5  A    between atoms: O_4  and  C_23
REMARK    6  A    between atoms: N_6  and  C_17
REMARK    7  A    between atoms: N_7  and  C_13
REMARK    8  A    between atoms: N_7  and  C_20
REMARK    9  A    between atoms: N_7  and  C_21
REMARK   10  A    between atoms: C_10  and  C_16
REMARK   11  A    between atoms: C_11  and  C_19
REMARK   12  A    between atoms: C_12  and  C_13
REMARK   13  A    between atoms: C_23  and  C_26
REMARK                            x       y       z     vdW  Elec       q    Type
REMARK                         _______ _______ _______ _____ _____    ______ ____
ROOT
ATOM      1 BR   UNL     1     -28.106  13.191 -17.784  0.00  0.00    +0.000 Br
ATOM      2  N   UNL     1     -26.969  12.519 -22.975  0.00  0.00    +0.000 N 
ATOM      3  C   UNL     1     -26.262  10.996 -21.507  0.00  0.00    +0.000 A 
ATOM      4  C   UNL     1     -26.964  12.196 -21.637  0.00  0.00    +0.000 A 
ATOM      5  C   UNL     1     -26.296  11.570 -23.694  0.00  0.00    +0.000 A 
ATOM      6  C   UNL     1     -25.846  10.612 -22.813  0.00  0.00    +0.000 A 
ATOM      7  C   UNL     1     -26.107  10.436 -20.224  0.00  0.00    +0.000 A 
ATOM      8  C   UNL     1     -27.522  12.866 -20.543  0.00  0.00    +0.000 A 
ATOM      9  C   UNL     1     -26.660  11.095 -19.120  0.00  0.00    +0.000 A 
ATOM     10  C   UNL     1     -27.597  13.698 -23.538  0.00  0.00    +0.000 C 
ATOM     11  C   UNL     1     -27.356  12.292 -19.280  0.00  0.00    +0.000 A 
ENDROOT
BRANCH   9  12
ATOM     12  O   UNL     1     -26.505  10.548 -17.876  0.00  0.00    +0.000 OA
ATOM     13  H   UNL     1     -26.650   9.631 -17.746  0.00  0.00    +0.000 HD
ENDBRANCH   9  12
BRANCH   6  15
ATOM     14  O   UNL     1     -25.602   8.407 -23.642  0.00  0.00    +0.000 OA
ATOM     15  C   UNL     1     -25.094   9.451 -23.200  0.00  0.00    +0.000 C 
BRANCH  15  16
ATOM     16  O   UNL     1     -23.729   9.583 -23.040  0.00  0.00    +0.000 OA
BRANCH  16  17
ATOM     17  C   UNL     1     -22.930   8.417 -23.270  0.00  0.00    +0.000 C 
ATOM     18  C   UNL     1     -22.119   8.122 -22.026  0.00  0.00    +0.000 C 
ENDBRANCH  16  17
ENDBRANCH  15  16
ENDBRANCH   6  15
BRANCH   7  19
ATOM     19  C   UNL     1     -25.366   9.152 -20.004  0.00  0.00    +0.000 C 
BRANCH  19  20
ATOM     20  N   UNL     1     -26.130   7.991 -20.454  0.00  0.00    +0.000 N 
ATOM     21  C   UNL     1     -25.268   6.811 -20.537  0.00  0.00    +0.000 C 
ATOM     22  C   UNL     1     -27.256   7.738 -19.555  0.00  0.00    +0.000 C 
ATOM     23  H   UNL     1     -26.498   8.188 -21.384  0.00  0.00    +0.000 HD
ENDBRANCH  19  20
ENDBRANCH   7  19
BRANCH   5  24
ATOM     24  C   UNL     1     -26.144  11.662 -25.162  0.00  0.00    +0.000 C 
BRANCH  24  25
ATOM     25  S   UNL     1     -24.611  12.530 -25.634  0.00  0.00    +0.000 S 
BRANCH  25  26
ATOM     26  C   UNL     1     -23.575  11.159 -26.128  0.00  0.00    +0.000 A 
ATOM     27  C   UNL     1     -24.158   9.973 -26.564  0.00  0.00    +0.000 A 
ATOM     28  C   UNL     1     -22.190  11.285 -26.075  0.00  0.00    +0.000 A 
ATOM     29  C   UNL     1     -23.351   8.903 -26.949  0.00  0.00    +0.000 A 
ATOM     30  C   UNL     1     -21.382  10.214 -26.461  0.00  0.00    +0.000 A 
ATOM     31  C   UNL     1     -21.962   9.024 -26.898  0.00  0.00    +0.000 A 
ENDBRANCH  25  26
ENDBRANCH  24  25
ENDBRANCH   5  24
TORSDOF 9
ENDMDL
MODEL 2
REMARK VINA RESULT:    -5.582      6.156      8.559
REMARK INTER + INTRA:         -10.200
REMARK INTER:                  -8.394
REMARK INTRA:                  -1.806
REMARK UNBOUND:                -1.844
REMARK  Name = 131411
REMARK  13 active torsions:
REMARK  status: ('A' for Active; 'I' for Inactive)
REMARK    1  A    between atoms: S_2  and  C_16
REMARK    2  A    between atoms: S_2  and  C_22
REMARK    3  A    between atoms: O_3  and  C_15
REMARK    4  A    between atoms: O_4  and  C_19
REMARK    5  A    between atoms: O_4  and  C_23
REMARK    6  A    between atoms: N_6  and  C_17
REMARK    7  A    between atoms: N_7  and  C_13
REMARK    8  A    between atoms: N_7  and  C_20
REMARK    9  A    between atoms: N_7  and  C_21
REMARK   10  A    between atoms: C_10  and  C_16
REMARK   11  A    between atoms: C_11  and  C_19
REMARK   12  A    between atoms: C_12  and  C_13
REMARK   13  A    between atoms: C_23  and  C_26
REMARK                            x       y       z     vdW  Elec       q    Type
REMARK                         _______ _______ _______ _____ _____    ______ ____
ROOT
ATOM      1 BR   UNL     1     -27.349  15.893 -13.527  0.00  0.00    +0.000 Br
ATOM      2  N   UNL     1     -28.591  18.485 -18.046  0.00  0.00    +0.000 N 
ATOM      3  C   UNL     1     -28.179  16.295 -18.135  0.00  0.00    +0.000 A 
ATOM      4  C   UNL     1     -28.253  17.394 -17.277  0.00  0.00    +0.000 A 
ATOM      5  C   UNL     1     -28.731  18.115 -19.356  0.00  0.00    +0.000 A 
ATOM      6  C   UNL     1     -28.483  16.764 -19.443  0.00  0.00    +0.000 A 
ATOM      7  C   UNL     1     -27.847  15.036 -17.596  0.00  0.00    +0.000 A 
ATOM      8  C   UNL     1     -28.010  17.298 -15.903  0.00  0.00    +0.000 A 
ATOM      9  C   UNL     1     -27.602  14.924 -16.223  0.00  0.00    +0.000 A 
ATOM     10  C   UNL     1     -28.769  19.831 -17.539  0.00  0.00    +0.000 C 
ATOM     11  C   UNL     1     -27.683  16.040 -15.391  0.00  0.00    +0.000 A 
ENDROOT
BRANCH   9  12
ATOM     12  O   UNL     1     -27.277  13.701 -15.705  0.00  0.00    +0.000 OA
ATOM     13  H   UNL     1     -27.909  13.008 -15.709  0.00  0.00    +0.000 HD
ENDBRANCH   9  12
BRANCH   6  15
ATOM     14  O   UNL     1     -29.590  15.677 -21.232  0.00  0.00    +0.000 OA
ATOM     15  C   UNL     1     -28.537  16.012 -20.666  0.00  0.00    +0.000 C 
BRANCH  15  16
ATOM     16  O   UNL     1     -27.299  15.680 -21.179  0.00  0.00    +0.000 OA
BRANCH  16  17
ATOM     17  C   UNL     1     -27.070  15.964 -22.564  0.00  0.00    +0.000 C 
ATOM     18  C   UNL     1     -26.938  17.462 -22.744  0.00  0.00    +0.000 C 
ENDBRANCH  16  17
ENDBRANCH  15  16
ENDBRANCH   6  15
BRANCH   7  19
ATOM     19  C   UNL     1     -27.747  13.810 -18.451  0.00  0.00    +0.000 C 
BRANCH  19  20
ATOM     20  N   UNL     1     -28.699  12.777 -18.048  0.00  0.00    +0.000 N 
ATOM     21  C   UNL     1     -30.035  13.083 -18.561  0.00  0.00    +0.000 C 
ATOM     22  C   UNL     1     -28.260  11.464 -18.518  0.00  0.00    +0.000 C 
ATOM     23  H   UNL     1     -28.741  12.758 -17.029  0.00  0.00    +0.000 HD
ENDBRANCH  19  20
ENDBRANCH   7  19
BRANCH   5  24
ATOM     24  C   UNL     1     -29.093  19.089 -20.409  0.00  0.00    +0.000 C 
BRANCH  24  25
ATOM     25  S   UNL     1     -30.900  19.247 -20.598  0.00  0.00    +0.000 S 
BRANCH  25  26
ATOM     26  C   UNL     1     -31.131  18.624 -22.258  0.00  0.00    +0.000 A 
ATOM     27  C   UNL     1     -32.143  17.705 -22.518  0.00  0.00    +0.000 A 
ATOM     28  C   UNL     1     -30.298  19.063 -23.283  0.00  0.00    +0.000 A 
ATOM     29  C   UNL     1     -32.324  17.220 -23.813  0.00  0.00    +0.000 A 
ATOM     30  C   UNL     1     -30.479  18.577 -24.579  0.00  0.00    +0.000 A 
ATOM     31  C   UNL     1     -31.492  17.656 -24.844  0.00  0.00    +0.000 A 
ENDBRANCH  25  26
ENDBRANCH  24  25
ENDBRANCH   5  24
TORSDOF 9
ENDMDL
MODEL 3
REMARK VINA RESULT:    -5.474      6.364      9.215
REMARK INTER + INTRA:         -10.038
REMARK INTER:                  -8.255
REMARK INTRA:                  -1.783
REMARK UNBOUND:                -1.844
REMARK  Name = 131411
REMARK  13 active torsions:
REMARK  status: ('A' for Active; 'I' for Inactive)
REMARK    1  A    between atoms: S_2  and  C_16
REMARK    2  A    between atoms: S_2  and  C_22
REMARK    3  A    between atoms: O_3  and  C_15
REMARK    4  A    between atoms: O_4  and  C_19
REMARK    5  A    between atoms: O_4  and  C_23
REMARK    6  A    between atoms: N_6  and  C_17
REMARK    7  A    between atoms: N_7  and  C_13
REMARK    8  A    between atoms: N_7  and  C_20
REMARK    9  A    between atoms: N_7  and  C_21
REMARK   10  A    between atoms: C_10  and  C_16
REMARK   11  A    between atoms: C_11  and  C_19
REMARK   12  A    between atoms: C_12  and  C_13
REMARK   13  A    between atoms: C_23  and  C_26
REMARK                            x       y       z     vdW  Elec       q    Type
REMARK                         _______ _______ _______ _____ _____    ______ ____
ROOT
ATOM      1 BR   UNL     1     -27.547  14.811 -14.616  0.00  0.00    +0.000 Br
ATOM      2  N   UNL     1     -27.519  14.958 -19.970  0.00  0.00    +0.000 N 
ATOM      3  C   UNL     1     -27.079  16.827 -18.835  0.00  0.00    +0.000 A 
ATOM      4  C   UNL     1     -27.396  15.474 -18.700  0.00  0.00    +0.000 A 
ATOM      5  C   UNL     1     -27.292  15.934 -20.901  0.00  0.00    +0.000 A 
ATOM      6  C   UNL     1     -27.017  17.104 -20.230  0.00  0.00    +0.000 A 
ATOM      7  C   UNL     1     -26.896  17.600 -17.672  0.00  0.00    +0.000 A 
ATOM      8  C   UNL     1     -27.540  14.852 -17.455  0.00  0.00    +0.000 A 
ATOM      9  C   UNL     1     -27.036  16.993 -16.419  0.00  0.00    +0.000 A 
ATOM     10  C   UNL     1     -27.843  13.578 -20.275  0.00  0.00    +0.000 C 
ATOM     11  C   UNL     1     -27.354  15.639 -16.314  0.00  0.00    +0.000 A 
ENDROOT
BRANCH   9  12
ATOM     12  O   UNL     1     -26.860  17.748 -15.293  0.00  0.00    +0.000 OA
ATOM     13  H   UNL     1     -26.174  18.386 -15.259  0.00  0.00    +0.000 HD
ENDBRANCH   9  12
BRANCH   6  15
ATOM     14  O   UNL     1     -27.571  19.235 -21.100  0.00  0.00    +0.000 OA
ATOM     15  C   UNL     1     -26.725  18.354 -20.874  0.00  0.00    +0.000 C 
BRANCH  15  16
ATOM     16  O   UNL     1     -25.401  18.508 -21.236  0.00  0.00    +0.000 OA
BRANCH  16  17
ATOM     17  C   UNL     1     -25.105  18.520 -22.637  0.00  0.00    +0.000 C 
ATOM     18  C   UNL     1     -23.607  18.629 -22.822  0.00  0.00    +0.000 C 
ENDBRANCH  16  17
ENDBRANCH  15  16
ENDBRANCH   6  15
BRANCH   7  19
ATOM     19  C   UNL     1     -26.555  19.058 -17.735  0.00  0.00    +0.000 C 
BRANCH  19  20
ATOM     20  N   UNL     1     -27.625  19.898 -17.201  0.00  0.00    +0.000 N 
ATOM     21  C   UNL     1     -27.263  21.312 -17.296  0.00  0.00    +0.000 C 
ATOM     22  C   UNL     1     -28.879  19.643 -17.910  0.00  0.00    +0.000 C 
ATOM     23  H   UNL     1     -27.757  19.664 -16.218  0.00  0.00    +0.000 HD
ENDBRANCH  19  20
ENDBRANCH   7  19
BRANCH   5  24
ATOM     24  C   UNL     1     -27.357  15.660 -22.353  0.00  0.00    +0.000 C 
BRANCH  24  25
ATOM     25  S   UNL     1     -29.065  15.341 -22.909  0.00  0.00    +0.000 S 
BRANCH  25  26
ATOM     26  C   UNL     1     -29.836  16.921 -22.583  0.00  0.00    +0.000 A 
ATOM     27  C   UNL     1     -30.515  17.126 -21.386  0.00  0.00    +0.000 A 
ATOM     28  C   UNL     1     -29.753  17.939 -23.529  0.00  0.00    +0.000 A 
ATOM     29  C   UNL     1     -31.117  18.359 -21.131  0.00  0.00    +0.000 A 
ATOM     30  C   UNL     1     -30.354  19.172 -23.274  0.00  0.00    +0.000 A 
ATOM     31  C   UNL     1     -31.036  19.382 -22.075  0.00  0.00    +0.000 A 
ENDBRANCH  25  26
ENDBRANCH  24  25
ENDBRANCH   5  24
TORSDOF 9
ENDMDL
MODEL 4
REMARK VINA RESULT:    -5.421      6.121      9.531
REMARK INTER + INTRA:          -9.960
REMARK INTER:                  -8.602
REMARK INTRA:                  -1.358
REMARK UNBOUND:                -1.844
REMARK  Name = 131411
REMARK  13 active torsions:
REMARK  status: ('A' for Active; 'I' for Inactive)
REMARK    1  A    between atoms: S_2  and  C_16
REMARK    2  A    between atoms: S_2  and  C_22
REMARK    3  A    between atoms: O_3  and  C_15
REMARK    4  A    between atoms: O_4  and  C_19
REMARK    5  A    between atoms: O_4  and  C_23
REMARK    6  A    between atoms: N_6  and  C_17
REMARK    7  A    between atoms: N_7  and  C_13
REMARK    8  A    between atoms: N_7  and  C_20
REMARK    9  A    between atoms: N_7  and  C_21
REMARK   10  A    between atoms: C_10  and  C_16
REMARK   11  A    between atoms: C_11  and  C_19
REMARK   12  A    between atoms: C_12  and  C_13
REMARK   13  A    between atoms: C_23  and  C_26
REMARK                            x       y       z     vdW  Elec       q    Type
REMARK                         _______ _______ _______ _____ _____    ______ ____
ROOT
ATOM      1 BR   UNL     1     -25.018   6.085 -29.524  0.00  0.00    +0.000 Br
ATOM      2  N   UNL     1     -20.348   4.626 -27.343  0.00  0.00    +0.000 N 
ATOM      3  C   UNL     1     -21.287   6.546 -26.704  0.00  0.00    +0.000 A 
ATOM      4  C   UNL     1     -21.442   5.439 -27.541  0.00  0.00    +0.000 A 
ATOM      5  C   UNL     1     -19.510   5.179 -26.414  0.00  0.00    +0.000 A 
ATOM      6  C   UNL     1     -20.064   6.369 -25.999  0.00  0.00    +0.000 A 
ATOM      7  C   UNL     1     -22.280   7.546 -26.711  0.00  0.00    +0.000 A 
ATOM      8  C   UNL     1     -22.544   5.281 -28.388  0.00  0.00    +0.000 A 
ATOM      9  C   UNL     1     -23.388   7.401 -27.553  0.00  0.00    +0.000 A 
ATOM     10  C   UNL     1     -20.120   3.367 -28.023  0.00  0.00    +0.000 C 
ATOM     11  C   UNL     1     -23.516   6.285 -28.378  0.00  0.00    +0.000 A 
ENDROOT
BRANCH   9  12
ATOM     12  O   UNL     1     -24.348   8.375 -27.558  0.00  0.00    +0.000 OA
ATOM     13  H   UNL     1     -24.477   8.910 -26.799  0.00  0.00    +0.000 HD
ENDBRANCH   9  12
BRANCH   6  15
ATOM     14  O   UNL     1     -18.470   7.947 -25.238  0.00  0.00    +0.000 OA
ATOM     15  C   UNL     1     -19.468   7.238 -25.023  0.00  0.00    +0.000 C 
BRANCH  15  16
ATOM     16  O   UNL     1     -20.100   7.228 -23.796  0.00  0.00    +0.000 OA
BRANCH  16  17
ATOM     17  C   UNL     1     -19.310   6.865 -22.658  0.00  0.00    +0.000 C 
ATOM     18  C   UNL     1     -20.227   6.379 -21.556  0.00  0.00    +0.000 C 
ENDBRANCH  16  17
ENDBRANCH  15  16
ENDBRANCH   6  15
BRANCH   7  19
ATOM     19  C   UNL     1     -22.185   8.763 -25.843  0.00  0.00    +0.000 C 
BRANCH  19  20
ATOM     20  N   UNL     1     -22.049   9.990 -26.625  0.00  0.00    +0.000 N 
ATOM     21  C   UNL     1     -22.740  11.098 -25.967  0.00  0.00    +0.000 C 
ATOM     22  C   UNL     1     -20.636  10.315 -26.825  0.00  0.00    +0.000 C 
ATOM     23  H   UNL     1     -22.477   9.838 -27.538  0.00  0.00    +0.000 HD
ENDBRANCH  19  20
ENDBRANCH   7  19
BRANCH   5  24
ATOM     24  C   UNL     1     -18.252   4.518 -26.004  0.00  0.00    +0.000 C 
BRANCH  24  25
ATOM     25  S   UNL     1     -18.423   3.666 -24.400  0.00  0.00    +0.000 S 
BRANCH  25  26
ATOM     26  C   UNL     1     -16.795   3.909 -23.703  0.00  0.00    +0.000 A 
ATOM     27  C   UNL     1     -16.571   4.958 -22.816  0.00  0.00    +0.000 A 
ATOM     28  C   UNL     1     -15.758   3.047 -24.050  0.00  0.00    +0.000 A 
ATOM     29  C   UNL     1     -15.302   5.148 -22.272  0.00  0.00    +0.000 A 
ATOM     30  C   UNL     1     -14.488   3.237 -23.505  0.00  0.00    +0.000 A 
ATOM     31  C   UNL     1     -14.259   4.288 -22.616  0.00  0.00    +0.000 A 
ENDBRANCH  25  26
ENDBRANCH  24  25
ENDBRANCH   5  24
TORSDOF 9
ENDMDL
MODEL 5
REMARK VINA RESULT:    -5.384      5.175      8.713
REMARK INTER + INTRA:          -9.904
REMARK INTER:                  -8.290
REMARK INTRA:                  -1.613
REMARK UNBOUND:                -1.844
REMARK  Name = 131411
REMARK  13 active torsions:
REMARK  status: ('A' for Active; 'I' for Inactive)
REMARK    1  A    between atoms: S_2  and  C_16
REMARK    2  A    between atoms: S_2  and  C_22
REMARK    3  A    between atoms: O_3  and  C_15
REMARK    4  A    between atoms: O_4  and  C_19
REMARK    5  A    between atoms: O_4  and  C_23
REMARK    6  A    between atoms: N_6  and  C_17
REMARK    7  A    between atoms: N_7  and  C_13
REMARK    8  A    between atoms: N_7  and  C_20
REMARK    9  A    between atoms: N_7  and  C_21
REMARK   10  A    between atoms: C_10  and  C_16
REMARK   11  A    between atoms: C_11  and  C_19
REMARK   12  A    between atoms: C_12  and  C_13
REMARK   13  A    between atoms: C_23  and  C_26
REMARK                            x       y       z     vdW  Elec       q    Type
REMARK                         _______ _______ _______ _____ _____    ______ ____
ROOT
ATOM      1 BR   UNL     1     -23.928   6.488 -29.208  0.00  0.00    +0.000 Br
ATOM      2  N   UNL     1     -22.856   7.601 -24.079  0.00  0.00    +0.000 N 
ATOM      3  C   UNL     1     -21.461   6.280 -25.214  0.00  0.00    +0.000 A 
ATOM      4  C   UNL     1     -22.640   7.022 -25.310  0.00  0.00    +0.000 A 
ATOM      5  C   UNL     1     -21.858   7.250 -23.211  0.00  0.00    +0.000 A 
ATOM      6  C   UNL     1     -20.979   6.433 -23.884  0.00  0.00    +0.000 A 
ATOM      7  C   UNL     1     -21.007   5.579 -26.348  0.00  0.00    +0.000 A 
ATOM      8  C   UNL     1     -23.390   7.099 -26.488  0.00  0.00    +0.000 A 
ATOM      9  C   UNL     1     -21.746   5.646 -27.534  0.00  0.00    +0.000 A 
ATOM     10  C   UNL     1     -23.980   8.456 -23.754  0.00  0.00    +0.000 C 
ATOM     11  C   UNL     1     -22.920   6.395 -27.601  0.00  0.00    +0.000 A 
ENDROOT
BRANCH   9  12
ATOM     12  O   UNL     1     -21.302   4.962 -28.632  0.00  0.00    +0.000 OA
ATOM     13  H   UNL     1     -21.429   5.319 -29.489  0.00  0.00    +0.000 HD
ENDBRANCH   9  12
BRANCH   6  15
ATOM     14  O   UNL     1     -19.741   4.717 -22.820  0.00  0.00    +0.000 OA
ATOM     15  C   UNL     1     -19.798   5.863 -23.296  0.00  0.00    +0.000 C 
BRANCH  15  16
ATOM     16  O   UNL     1     -18.703   6.704 -23.299  0.00  0.00    +0.000 OA
BRANCH  16  17
ATOM     17  C   UNL     1     -17.412   6.092 -23.214  0.00  0.00    +0.000 C 
ATOM     18  C   UNL     1     -16.360   7.106 -23.613  0.00  0.00    +0.000 C 
ENDBRANCH  16  17
ENDBRANCH  15  16
ENDBRANCH   6  15
BRANCH   7  19
ATOM     19  C   UNL     1     -19.752   4.760 -26.324  0.00  0.00    +0.000 C 
BRANCH  19  20
ATOM     20  N   UNL     1     -18.790   5.194 -27.334  0.00  0.00    +0.000 N 
ATOM     21  C   UNL     1     -18.008   6.328 -26.844  0.00  0.00    +0.000 C 
ATOM     22  C   UNL     1     -17.908   4.089 -27.709  0.00  0.00    +0.000 C 
ATOM     23  H   UNL     1     -19.306   5.491 -28.162  0.00  0.00    +0.000 HD
ENDBRANCH  19  20
ENDBRANCH   7  19
BRANCH   5  24
ATOM     24  C   UNL     1     -21.835   7.731 -21.813  0.00  0.00    +0.000 C 
BRANCH  24  25
ATOM     25  S   UNL     1     -22.245   6.404 -20.630  0.00  0.00    +0.000 S 
BRANCH  25  26
ATOM     26  C   UNL     1     -23.998   6.671 -20.404  0.00  0.00    +0.000 A 
ATOM     27  C   UNL     1     -24.913   5.916 -21.131  0.00  0.00    +0.000 A 
ATOM     28  C   UNL     1     -24.441   7.633 -19.500  0.00  0.00    +0.000 A 
ATOM     29  C   UNL     1     -26.281   6.123 -20.955  0.00  0.00    +0.000 A 
ATOM     30  C   UNL     1     -25.809   7.841 -19.323  0.00  0.00    +0.000 A 
ATOM     31  C   UNL     1     -26.729   7.085 -20.051  0.00  0.00    +0.000 A 
ENDBRANCH  25  26
ENDBRANCH  24  25
ENDBRANCH   5  24
TORSDOF 9
ENDMDL
MODEL 6
REMARK VINA RESULT:    -5.373      5.015      7.180
REMARK INTER + INTRA:          -9.887
REMARK INTER:                  -8.288
REMARK INTRA:                  -1.599
REMARK UNBOUND:                -1.844
REMARK  Name = 131411
REMARK  13 active torsions:
REMARK  status: ('A' for Active; 'I' for Inactive)
REMARK    1  A    between atoms: S_2  and  C_16
REMARK    2  A    between atoms: S_2  and  C_22
REMARK    3  A    between atoms: O_3  and  C_15
REMARK    4  A    between atoms: O_4  and  C_19
REMARK    5  A    between atoms: O_4  and  C_23
REMARK    6  A    between atoms: N_6  and  C_17
REMARK    7  A    between atoms: N_7  and  C_13
REMARK    8  A    between atoms: N_7  and  C_20
REMARK    9  A    between atoms: N_7  and  C_21
REMARK   10  A    between atoms: C_10  and  C_16
REMARK   11  A    between atoms: C_11  and  C_19
REMARK   12  A    between atoms: C_12  and  C_13
REMARK   13  A    between atoms: C_23  and  C_26
REMARK                            x       y       z     vdW  Elec       q    Type
REMARK                         _______ _______ _______ _____ _____    ______ ____
ROOT
ATOM      1 BR   UNL     1     -25.039  10.700 -25.283  0.00  0.00    +0.000 Br
ATOM      2  N   UNL     1     -20.995   7.272 -24.515  0.00  0.00    +0.000 N 
ATOM      3  C   UNL     1     -22.399   7.682 -22.831  0.00  0.00    +0.000 A 
ATOM      4  C   UNL     1     -22.113   7.994 -24.162  0.00  0.00    +0.000 A 
ATOM      5  C   UNL     1     -20.565   6.519 -23.457  0.00  0.00    +0.000 A 
ATOM      6  C   UNL     1     -21.414   6.750 -22.399  0.00  0.00    +0.000 A 
ATOM      7  C   UNL     1     -23.510   8.293 -22.215  0.00  0.00    +0.000 A 
ATOM      8  C   UNL     1     -22.885   8.888 -24.911  0.00  0.00    +0.000 A 
ATOM      9  C   UNL     1     -24.291   9.189 -22.952  0.00  0.00    +0.000 A 
ATOM     10  C   UNL     1     -20.365   7.310 -25.820  0.00  0.00    +0.000 C 
ATOM     11  C   UNL     1     -23.982   9.482 -24.280  0.00  0.00    +0.000 A 
ENDROOT
BRANCH   9  12
ATOM     12  O   UNL     1     -25.367   9.781 -22.349  0.00  0.00    +0.000 OA
ATOM     13  H   UNL     1     -26.012   9.253 -21.920  0.00  0.00    +0.000 HD
ENDBRANCH   9  12
BRANCH   6  15
ATOM     14  O   UNL     1     -20.582   6.587 -20.188  0.00  0.00    +0.000 OA
ATOM     15  C   UNL     1     -21.282   6.133 -21.109  0.00  0.00    +0.000 C 
BRANCH  15  16
ATOM     16  O   UNL     1     -22.005   4.966 -20.964  0.00  0.00    +0.000 OA
BRANCH  16  17
ATOM     17  C   UNL     1     -21.262   3.748 -20.844  0.00  0.00    +0.000 C 
ATOM     18  C   UNL     1     -21.504   2.900 -22.074  0.00  0.00    +0.000 C 
ENDBRANCH  16  17
ENDBRANCH  15  16
ENDBRANCH   6  15
BRANCH   7  19
ATOM     19  C   UNL     1     -23.881   8.010 -20.791  0.00  0.00    +0.000 C 
BRANCH  19  20
ATOM     20  N   UNL     1     -25.252   7.523 -20.665  0.00  0.00    +0.000 N 
ATOM     21  C   UNL     1     -25.315   6.088 -20.941  0.00  0.00    +0.000 C 
ATOM     22  C   UNL     1     -25.776   7.809 -19.329  0.00  0.00    +0.000 C 
ATOM     23  H   UNL     1     -25.831   8.010 -21.349  0.00  0.00    +0.000 HD
ENDBRANCH  19  20
ENDBRANCH   7  19
BRANCH   5  24
ATOM     24  C   UNL     1     -19.378   5.642 -23.554  0.00  0.00    +0.000 C 
BRANCH  24  25
ATOM     25  S   UNL     1     -17.845   6.518 -23.097  0.00  0.00    +0.000 S 
BRANCH  25  26
ATOM     26  C   UNL     1     -16.637   5.210 -23.258  0.00  0.00    +0.000 A 
ATOM     27  C   UNL     1     -15.359   5.380 -22.732  0.00  0.00    +0.000 A 
ATOM     28  C   UNL     1     -16.980   4.027 -23.906  0.00  0.00    +0.000 A 
ATOM     29  C   UNL     1     -14.417   4.359 -22.857  0.00  0.00    +0.000 A 
ATOM     30  C   UNL     1     -16.037   3.006 -24.030  0.00  0.00    +0.000 A 
ATOM     31  C   UNL     1     -14.756   3.172 -23.505  0.00  0.00    +0.000 A 
ENDBRANCH  25  26
ENDBRANCH  24  25
ENDBRANCH   5  24
TORSDOF 9
ENDMDL
MODEL 7
REMARK VINA RESULT:    -5.244      4.774      7.351
REMARK INTER + INTRA:          -9.694
REMARK INTER:                  -8.134
REMARK INTRA:                  -1.560
REMARK UNBOUND:                -1.844
REMARK  Name = 131411
REMARK  13 active torsions:
REMARK  status: ('A' for Active; 'I' for Inactive)
REMARK    1  A    between atoms: S_2  and  C_16
REMARK    2  A    between atoms: S_2  and  C_22
REMARK    3  A    between atoms: O_3  and  C_15
REMARK    4  A    between atoms: O_4  and  C_19
REMARK    5  A    between atoms: O_4  and  C_23
REMARK    6  A    between atoms: N_6  and  C_17
REMARK    7  A    between atoms: N_7  and  C_13
REMARK    8  A    between atoms: N_7  and  C_20
REMARK    9  A    between atoms: N_7  and  C_21
REMARK   10  A    between atoms: C_10  and  C_16
REMARK   11  A    between atoms: C_11  and  C_19
REMARK   12  A    between atoms: C_12  and  C_13
REMARK   13  A    between atoms: C_23  and  C_26
REMARK                            x       y       z     vdW  Elec       q    Type
REMARK                         _______ _______ _______ _____ _____    ______ ____
ROOT
ATOM      1 BR   UNL     1     -25.755   8.400 -19.364  0.00  0.00    +0.000 Br
ATOM      2  N   UNL     1     -21.335   6.126 -21.361  0.00  0.00    +0.000 N 
ATOM      3  C   UNL     1     -22.670   7.279 -22.727  0.00  0.00    +0.000 A 
ATOM      4  C   UNL     1     -22.500   6.860 -21.406  0.00  0.00    +0.000 A 
ATOM      5  C   UNL     1     -20.767   6.066 -22.604  0.00  0.00    +0.000 A 
ATOM      6  C   UNL     1     -21.569   6.770 -23.472  0.00  0.00    +0.000 A 
ATOM      7  C   UNL     1     -23.799   8.057 -23.052  0.00  0.00    +0.000 A 
ATOM      8  C   UNL     1     -23.404   7.182 -20.389  0.00  0.00    +0.000 A 
ATOM      9  C   UNL     1     -24.712   8.388 -22.045  0.00  0.00    +0.000 A 
ATOM     10  C   UNL     1     -20.794   5.507 -20.168  0.00  0.00    +0.000 C 
ATOM     11  C   UNL     1     -24.516   7.956 -20.734  0.00  0.00    +0.000 A 
ENDROOT
BRANCH   9  12
ATOM     12  O   UNL     1     -25.808   9.142 -22.365  0.00  0.00    +0.000 OA
ATOM     13  H   UNL     1     -26.212   9.680 -21.713  0.00  0.00    +0.000 HD
ENDBRANCH   9  12
BRANCH   6  15
ATOM     14  O   UNL     1     -20.696   7.905 -25.358  0.00  0.00    +0.000 OA
ATOM     15  C   UNL     1     -21.295   6.931 -24.873  0.00  0.00    +0.000 C 
BRANCH  15  16
ATOM     16  O   UNL     1     -21.760   5.898 -25.662  0.00  0.00    +0.000 OA
BRANCH  16  17
ATOM     17  C   UNL     1     -20.918   5.470 -26.738  0.00  0.00    +0.000 C 
ATOM     18  C   UNL     1     -20.095   4.286 -26.278  0.00  0.00    +0.000 C 
ENDBRANCH  16  17
ENDBRANCH  15  16
ENDBRANCH   6  15
BRANCH   7  19
ATOM     19  C   UNL     1     -24.052   8.543 -24.446  0.00  0.00    +0.000 C 
BRANCH  19  20
ATOM     20  N   UNL     1     -24.159   9.999 -24.512  0.00  0.00    +0.000 N 
ATOM     21  C   UNL     1     -22.838  10.603 -24.688  0.00  0.00    +0.000 C 
ATOM     22  C   UNL     1     -25.052  10.398 -25.600  0.00  0.00    +0.000 C 
ATOM     23  H   UNL     1     -24.553  10.332 -23.633  0.00  0.00    +0.000 HD
ENDBRANCH  19  20
ENDBRANCH   7  19
BRANCH   5  24
ATOM     24  C   UNL     1     -19.502   5.339 -22.851  0.00  0.00    +0.000 C 
BRANCH  24  25
ATOM     25  S   UNL     1     -18.107   6.478 -23.138  0.00  0.00    +0.000 S 
BRANCH  25  26
ATOM     26  C   UNL     1     -16.733   5.336 -23.198  0.00  0.00    +0.000 A 
ATOM     27  C   UNL     1     -15.581   5.599 -22.462  0.00  0.00    +0.000 A 
ATOM     28  C   UNL     1     -16.823   4.186 -23.978  0.00  0.00    +0.000 A 
ATOM     29  C   UNL     1     -14.510   4.708 -22.508  0.00  0.00    +0.000 A 
ATOM     30  C   UNL     1     -15.751   3.295 -24.024  0.00  0.00    +0.000 A 
ATOM     31  C   UNL     1     -14.594   3.555 -23.288  0.00  0.00    +0.000 A 
ENDBRANCH  25  26
ENDBRANCH  24  25
ENDBRANCH   5  24
TORSDOF 9
ENDMDL
MODEL 8
REMARK VINA RESULT:    -5.200      6.622      9.266
REMARK INTER + INTRA:          -9.629
REMARK INTER:                  -7.978
REMARK INTRA:                  -1.652
REMARK UNBOUND:                -1.844
REMARK  Name = 131411
REMARK  13 active torsions:
REMARK  status: ('A' for Active; 'I' for Inactive)
REMARK    1  A    between atoms: S_2  and  C_16
REMARK    2  A    between atoms: S_2  and  C_22
REMARK    3  A    between atoms: O_3  and  C_15
REMARK    4  A    between atoms: O_4  and  C_19
REMARK    5  A    between atoms: O_4  and  C_23
REMARK    6  A    between atoms: N_6  and  C_17
REMARK    7  A    between atoms: N_7  and  C_13
REMARK    8  A    between atoms: N_7  and  C_20
REMARK    9  A    between atoms: N_7  and  C_21
REMARK   10  A    between atoms: C_10  and  C_16
REMARK   11  A    between atoms: C_11  and  C_19
REMARK   12  A    between atoms: C_12  and  C_13
REMARK   13  A    between atoms: C_23  and  C_26
REMARK                            x       y       z     vdW  Elec       q    Type
REMARK                         _______ _______ _______ _____ _____    ______ ____
ROOT
ATOM      1 BR   UNL     1     -15.346   3.128 -23.347  0.00  0.00    +0.000 Br
ATOM      2  N   UNL     1     -19.342   4.209 -26.746  0.00  0.00    +0.000 N 
ATOM      3  C   UNL     1     -19.516   4.878 -24.625  0.00  0.00    +0.000 A 
ATOM      4  C   UNL     1     -18.690   4.213 -25.534  0.00  0.00    +0.000 A 
ATOM      5  C   UNL     1     -20.548   4.845 -26.636  0.00  0.00    +0.000 A 
ATOM      6  C   UNL     1     -20.685   5.271 -25.335  0.00  0.00    +0.000 A 
ATOM      7  C   UNL     1     -19.080   5.024 -23.293  0.00  0.00    +0.000 A 
ATOM      8  C   UNL     1     -17.445   3.685 -25.175  0.00  0.00    +0.000 A 
ATOM      9  C   UNL     1     -17.838   4.501 -22.921  0.00  0.00    +0.000 A 
ATOM     10  C   UNL     1     -18.823   3.614 -27.962  0.00  0.00    +0.000 C 
ATOM     11  C   UNL     1     -17.033   3.841 -23.849  0.00  0.00    +0.000 A 
ENDROOT
BRANCH   9  12
ATOM     12  O   UNL     1     -17.420   4.643 -21.626  0.00  0.00    +0.000 OA
ATOM     13  H   UNL     1     -18.048   4.657 -20.930  0.00  0.00    +0.000 HD
ENDBRANCH   9  12
BRANCH   6  15
ATOM     14  O   UNL     1     -22.813   5.439 -24.309  0.00  0.00    +0.000 OA
ATOM     15  C   UNL     1     -21.829   5.984 -24.836  0.00  0.00    +0.000 C 
BRANCH  15  16
ATOM     16  O   UNL     1     -21.753   7.353 -24.991  0.00  0.00    +0.000 OA
BRANCH  16  17
ATOM     17  C   UNL     1     -22.924   8.020 -25.474  0.00  0.00    +0.000 C 
ATOM     18  C   UNL     1     -22.737   8.344 -26.941  0.00  0.00    +0.000 C 
ENDBRANCH  16  17
ENDBRANCH  15  16
ENDBRANCH   6  15
BRANCH   7  19
ATOM     19  C   UNL     1     -19.910   5.724 -22.261  0.00  0.00    +0.000 C 
BRANCH  19  20
ATOM     20  N   UNL     1     -20.255   4.848 -21.143  0.00  0.00    +0.000 N 
ATOM     21  C   UNL     1     -20.792   5.627 -20.028  0.00  0.00    +0.000 C 
ATOM     22  C   UNL     1     -21.218   3.832 -21.567  0.00  0.00    +0.000 C 
ATOM     23  H   UNL     1     -19.406   4.377 -20.831  0.00  0.00    +0.000 HD
ENDBRANCH  19  20
ENDBRANCH   7  19
BRANCH   5  24
ATOM     24  C   UNL     1     -21.463   4.990 -27.789  0.00  0.00    +0.000 C 
BRANCH  24  25
ATOM     25  S   UNL     1     -22.766   3.714 -27.788  0.00  0.00    +0.000 S 
BRANCH  25  26
ATOM     26  C   UNL     1     -23.807   4.281 -29.127  0.00  0.00    +0.000 A 
ATOM     27  C   UNL     1     -24.564   3.364 -29.852  0.00  0.00    +0.000 A 
ATOM     28  C   UNL     1     -23.857   5.636 -29.438  0.00  0.00    +0.000 A 
ATOM     29  C   UNL     1     -25.376   3.805 -30.896  0.00  0.00    +0.000 A 
ATOM     30  C   UNL     1     -24.670   6.078 -30.483  0.00  0.00    +0.000 A 
ATOM     31  C   UNL     1     -25.430   5.162 -31.212  0.00  0.00    +0.000 A 
ENDBRANCH  25  26
ENDBRANCH  24  25
ENDBRANCH   5  24
TORSDOF 9
ENDMDL
MODEL 9
REMARK VINA RESULT:    -5.177      6.764      9.178
REMARK INTER + INTRA:          -9.595
REMARK INTER:                  -8.342
REMARK INTRA:                  -1.253
REMARK UNBOUND:                -1.844
REMARK  Name = 131411
REMARK  13 active torsions:
REMARK  status: ('A' for Active; 'I' for Inactive)
REMARK    1  A    between atoms: S_2  and  C_16
REMARK    2  A    between atoms: S_2  and  C_22
REMARK    3  A    between atoms: O_3  and  C_15
REMARK    4  A    between atoms: O_4  and  C_19
REMARK    5  A    between atoms: O_4  and  C_23
REMARK    6  A    between atoms: N_6  and  C_17
REMARK    7  A    between atoms: N_7  and  C_13
REMARK    8  A    between atoms: N_7  and  C_20
REMARK    9  A    between atoms: N_7  and  C_21
REMARK   10  A    between atoms: C_10  and  C_16
REMARK   11  A    between atoms: C_11  and  C_19
REMARK   12  A    between atoms: C_12  and  C_13
REMARK   13  A    between atoms: C_23  and  C_26
REMARK                            x       y       z     vdW  Elec       q    Type
REMARK                         _______ _______ _______ _____ _____    ______ ____
ROOT
ATOM      1 BR   UNL     1     -25.132  21.867 -17.500  0.00  0.00    +0.000 Br
ATOM      2  N   UNL     1     -26.976  17.732 -20.364  0.00  0.00    +0.000 N 
ATOM      3  C   UNL     1     -27.433  17.826 -18.183  0.00  0.00    +0.000 A 
ATOM      4  C   UNL     1     -26.784  18.487 -19.228  0.00  0.00    +0.000 A 
ATOM      5  C   UNL     1     -27.720  16.621 -20.074  0.00  0.00    +0.000 A 
ATOM      6  C   UNL     1     -28.019  16.651 -18.731  0.00  0.00    +0.000 A 
ATOM      7  C   UNL     1     -27.392  18.393 -16.893  0.00  0.00    +0.000 A 
ATOM      8  C   UNL     1     -26.094  19.690 -19.048  0.00  0.00    +0.000 A 
ATOM      9  C   UNL     1     -26.706  19.597 -16.698  0.00  0.00    +0.000 A 
ATOM     10  C   UNL     1     -26.460  18.069 -21.676  0.00  0.00    +0.000 C 
ATOM     11  C   UNL     1     -26.067  20.234 -17.761  0.00  0.00    +0.000 A 
ENDROOT
BRANCH   9  12
ATOM     12  O   UNL     1     -26.667  20.142 -15.444  0.00  0.00    +0.000 OA
ATOM     13  H   UNL     1     -26.034  19.840 -14.822  0.00  0.00    +0.000 HD
ENDBRANCH   9  12
BRANCH   6  15
ATOM     14  O   UNL     1     -29.967  15.801 -17.686  0.00  0.00    +0.000 OA
ATOM     15  C   UNL     1     -28.791  15.645 -18.055  0.00  0.00    +0.000 C 
BRANCH  15  16
ATOM     16  O   UNL     1     -28.112  14.463 -17.837  0.00  0.00    +0.000 OA
BRANCH  16  17
ATOM     17  C   UNL     1     -28.818  13.247 -18.108  0.00  0.00    +0.000 C 
ATOM     18  C   UNL     1     -27.998  12.403 -19.061  0.00  0.00    +0.000 C 
ENDBRANCH  16  17
ENDBRANCH  15  16
ENDBRANCH   6  15
BRANCH   7  19
ATOM     19  C   UNL     1     -28.063  17.744 -15.721  0.00  0.00    +0.000 C 
BRANCH  19  20
ATOM     20  N   UNL     1     -27.103  17.295 -14.715  0.00  0.00    +0.000 N 
ATOM     21  C   UNL     1     -27.593  17.593 -13.370  0.00  0.00    +0.000 C 
ATOM     22  C   UNL     1     -26.843  15.863 -14.859  0.00  0.00    +0.000 C 
ATOM     23  H   UNL     1     -26.227  17.798 -14.860  0.00  0.00    +0.000 HD
ENDBRANCH  19  20
ENDBRANCH   7  19
BRANCH   5  24
ATOM     24  C   UNL     1     -28.080  15.630 -21.110  0.00  0.00    +0.000 C 
BRANCH  24  25
ATOM     25  S   UNL     1     -29.883  15.375 -21.211  0.00  0.00    +0.000 S 
BRANCH  25  26
ATOM     26  C   UNL     1     -30.311  16.460 -22.567  0.00  0.00    +0.000 A 
ATOM     27  C   UNL     1     -31.132  15.997 -23.591  0.00  0.00    +0.000 A 
ATOM     28  C   UNL     1     -29.822  17.763 -22.591  0.00  0.00    +0.000 A 
ATOM     29  C   UNL     1     -31.466  16.842 -24.648  0.00  0.00    +0.000 A 
ATOM     30  C   UNL     1     -30.156  18.609 -23.649  0.00  0.00    +0.000 A 
ATOM     31  C   UNL     1     -30.979  18.148 -24.678  0.00  0.00    +0.000 A 
ENDBRANCH  25  26
ENDBRANCH  24  25
ENDBRANCH   5  24
TORSDOF 9
ENDMDL
